chemcompute.org
{'UTCtimestamp': '2022-10-04T21:22:07.463052', 'cluster': 'jetstream2', 'clusterJobNumber': '120816', 'status': 'RUNNING', 'nodeList': 'chemcompute-node-2'}
----- GAMESS execution script 'rungms' -----
This job is running on host chemcompute-node-2.novalocal
under operating system Linux at Tue Oct 4 21:22:11 UTC 2022
SLURM has assigned the following compute nodes to this run:
Available scratch disk space (Kbyte units) at beginning of the job is
Filesystem     1K-blocks     Used Available Use% Mounted on
/dev/sda1       62903276 11059844  51843432  18% /
GAMESS temporary binary files will be written to /scratch/120816
GAMESS supplementary output files will be written to /data/slurm/46/460773
Copying input file 460773.inp to your run's scratch directory...
The generated host list is
chemcompute-node-2.novalocal

 Distributed Data Interface kickoff program.
 Initiating 1 compute processes on 1 nodes to run the following command:
 /data/gamess-2019R1-avx2-ddi/gamess.00.x 460773 

          ******************************************************
          *         GAMESS VERSION = 30 JUN 2019 (R1)          *
          *             FROM IOWA STATE UNIVERSITY             *
          * M.W.SCHMIDT, K.K.BALDRIDGE, J.A.BOATZ, S.T.ELBERT, *
          *   M.S.GORDON, J.H.JENSEN, S.KOSEKI, N.MATSUNAGA,   *
          *          K.A.NGUYEN, S.J.SU, T.L.WINDUS,           *
          *       TOGETHER WITH M.DUPUIS, J.A.MONTGOMERY       *
          *         J.COMPUT.CHEM.  14, 1347-1363(1993)        *
          **************** 64 BIT INTEL VERSION ****************

  SINCE 1993, STUDENTS AND POSTDOCS WORKING AT IOWA STATE UNIVERSITY
  AND ALSO IN THEIR VARIOUS JOBS AFTER LEAVING ISU HAVE MADE IMPORTANT
  CONTRIBUTIONS TO THE CODE:
     IVANA ADAMOVIC, CHRISTINE AIKENS, YURI ALEXEEV, POOJA ARORA,
     ANDREY ASADCHEV, ROB BELL, PRADIPTA BANDYOPADHYAY, JONATHAN BENTZ,
     COLLEEN BERTONI, BRETT BODE, KURT BRORSEN, CALEB CARLIN, GALINA CHABAN,
     WEI CHEN, CHEOL HO CHOI, PAUL DAY, ALBERT DEFUSCO, NUWAN DESILVA,
     TIM DUDLEY, DMITRI FEDOROV, ALEX FINDLATER, GRAHAM FLETCHER, 
     MARK FREITAG, KURT GLAESEMANN, ANASTASIA GUNINA,
     DAN KEMP, GRANT MERRILL, NORIYUKI MINEZAWA, JONATHAN MULLIN,
     TAKESHI NAGATA, SEAN NEDD, HEATHER NETZLOFF, BOSILJKA NJEGIC, RYAN OLSON,
     MIKE PAK, BUU PHAM,
     SPENCER PRUITT, LUKE ROSKOP, JIM SHOEMAKER, LYUDMILA SLIPCHENKO,
     TONY SMITH, SAROM SOK LEANG, JIE SONG, TETSUYA TAKETSUGU, SIMON WEBB,
     PENG XU, SOOHAENG YOO, FEDERICO ZAHARIEV

  ADDITIONAL CODE HAS BEEN PROVIDED BY COLLABORATORS IN OTHER GROUPS:
     IOWA STATE UNIVERSITY:
          JOE IVANIC, AARON WEST, LAIMUTIS BYTAUTAS, KLAUS RUEDENBERG
     UNIVERSITY OF TOKYO: KIMIHIKO HIRAO, TAKAHITO NAKAJIMA,
          TAKAO TSUNEDA, MUNEAKI KAMIYA, SUSUMU YANAGISAWA,
          KIYOSHI YAGI, MAHITO CHIBA, SEIKEN TOKURA, NAOAKI KAWAKAMI
     UNIVERSITY OF AARHUS: FRANK JENSEN
     UNIVERSITY OF IOWA: VISVALDAS KAIRYS, HUI LI
     NATIONAL INST. OF STANDARDS AND TECHNOLOGY: WALT STEVENS, DAVID GARMER
     UNIVERSITY OF PISA: BENEDETTA MENNUCCI, JACOPO TOMASI
     UNIVERSITY OF MEMPHIS: HENRY KURTZ, PRAKASHAN KORAMBATH
     UNIVERSITY OF ALBERTA: TOBY ZENG, MARIUSZ KLOBUKOWSKI
     UNIVERSITY OF NEW ENGLAND: MARK SPACKMAN
     MIE UNIVERSITY: HIROAKI UMEDA
     NAT. INST. OF ADVANCED INDUSTRIAL SCIENCE AND TECHNOLOGY: KAZUO KITAURA
     MICHIGAN STATE UNIVERSITY:
          KAROL KOWALSKI, MARTA WLOCH, JEFFREY GOUR, JESSE LUTZ,
          WEI LI, JUN SHEN, J. EMILIANO DEUSTUA, PIOTR PIECUCH
     UNIVERSITY OF MINNESOTA:
          YINAN SHU
     UNIVERSITY OF SILESIA: MONIKA MUSIAL, STANISLAW KUCHARSKI
     FACULTES UNIVERSITAIRES NOTRE-DAME DE LA PAIX:
          OLIVIER QUINET, BENOIT CHAMPAGNE
     UNIVERSITY OF CALIFORNIA - SANTA BARBARA: BERNARD KIRTMAN
     INSTITUTE FOR MOLECULAR SCIENCE:
          KAZUYA ISHIMURA, MICHIO KATOUDA, AND SHIGERU NAGASE
     UNIVERSITY OF NOTRE DAME: ANNA POMOGAEVA, DAN CHIPMAN
     KYUSHU UNIVERSITY:
          HARUYUKI NAKANO,
          FENG LONG GU, JACEK KORCHOWIEC, MARCIN MAKOWSKI, AND YURIKO AOKI,
          HIROTOSHI MORI AND EISAKU MIYOSHI
     PENNSYLVANIA STATE UNIVERSITY:
          TZVETELIN IORDANOV, CHET SWALINA, JONATHAN SKONE,
          SHARON HAMMES-SCHIFFER
     WASEDA UNIVERSITY:
          MASATO KOBAYASHI, TOMOKO AKAMA, TSUGUKI TOUMA,
          TAKESHI YOSHIKAWA, YASUHIRO IKABATA, JUNJI SEINO,
          YUYA NAKAJIMA, HIROMI NAKAI
     NANJING UNIVERSITY: SHUHUA LI
     UNIVERSITY OF NEBRASKA:
          PEIFENG SU, DEJUN SI, NANDUN THELLAMUREGE, YALI WANG, HUI LI
     UNIVERSITY OF ZURICH: ROBERTO PEVERATI, KIM BALDRIDGE
     N. COPERNICUS UNIVERSITY AND JACKSON STATE UNIVERSITY:
          MARIA BARYSZ
     UNIVERSITY OF COPENHAGEN: Jimmy Kromann, CASPER STEINMANN
     TOKYO INSTITUTE OF TECHNOLOGY: HIROYA NAKATA
     NAGOYA UNIVERSITY: YOSHIO NISHIMOTO, STEPHAN IRLE
     MOSCOW STATE UNIVERSITY: VLADIMIR MIRONOV
     A.N.NESMEYANOV INSTITUTE OF ORGANOELEMENT COMPOUNDS OF RUSSIAN ACADEMY OF SCIENCES:
          IGOR S. GERASIMOV

 EXECUTION OF GAMESS BEGUN Tue Oct  4 21:22:11 2022

            ECHO OF THE FIRST FEW INPUT CARDS -
 INPUT CARD>!                                                                               
 INPUT CARD>!   GAMESS Calculation input file                                               
 INPUT CARD>!   Molecula de prueba                                                          
 INPUT CARD>!                                                                               
 INPUT CARD> $CONTRL SCFTYP=RHF MAXIT=200 RUNTYP=OPTIMIZE                                   
 INPUT CARD>         COORD=UNIQUE MULT=1                                                    
 INPUT CARD>         ICHARG=0                                                               
 INPUT CARD>         DFTTYP=B3LYP                                                           
 INPUT CARD>         MOLPLT=.FALSE. PLTORB=.FALSE.  $END                                    
 INPUT CARD> $SYSTEM TIMLIM=2879 MWORDS=250  $END                                           
 INPUT CARD>                                                                                
 INPUT CARD> $FORCE METHOD=SEMINUM NVIB=2 $END                                              
 INPUT CARD> $STATPT OPTTOL=0.0005 NSTEP=999 $END                                           
 INPUT CARD> $STATPT IHREP=0 HSSEND=.TRUE.  $END                                            
 INPUT CARD>                                                                                
 INPUT CARD> $DFT    METHOD=GRID  NLEB=590  $END                                            
 INPUT CARD>                                                                                
 INPUT CARD> $BASIS  GBASIS=N31 NGAUSS=6                                                    
 INPUT CARD>         NDFUNC=1   NPFUNC=0  $END                                              
 INPUT CARD>                                                                                
 INPUT CARD> $SCF    DIRSCF=.T. $END                                                        
 INPUT CARD> $GUESS  GUESS=HUCKEL  $END                                                     
 INPUT CARD>                                                                                
 INPUT CARD> $DATA                                                                          
 INPUT CARD>   Molecula de prueba                                                           
 INPUT CARD>  C1                                                                            
 INPUT CARD>C     6.0    -0.88020     0.04147     0.15577                                   
 INPUT CARD>C     6.0     0.22303    -0.90737    -0.14241                                   
 INPUT CARD>O     8.0    -0.78219     1.25341     0.05241                                   
 INPUT CARD>C     6.0     1.51341    -0.54080    -0.08115                                   
 INPUT CARD>H     1.0    -1.81903    -0.44138     0.48024                                   
 INPUT CARD>H     1.0    -0.06550    -1.91757    -0.39379                                   
 INPUT CARD>H     1.0     1.80396     0.46799     0.18878                                   
 INPUT CARD>H     1.0     2.29942    -1.25237    -0.29983                                   
 INPUT CARD> $END                                                                           
 INPUT CARD>                                                                                
 INPUT CARD>                                                                                
 INPUT CARD>! Customizations after this line are persisted when using Do More Calculations  
  250000000 WORDS OF MEMORY AVAILABLE

     BASIS OPTIONS
     -------------
     GBASIS=N31          IGAUSS=       6      POLAR=POPN31  
     NDFUNC=       1     NFFUNC=       0     DIFFSP=       F
     NPFUNC=       0      DIFFS=       F     BASNAM=        


     RUN TITLE
     ---------
    Molecula de prueba                                                           

 THE POINT GROUP OF THE MOLECULE IS C1      
 THE ORDER OF THE PRINCIPAL AXIS IS     0

 ATOM      ATOMIC                      COORDINATES (BOHR)
           CHARGE         X                   Y                   Z
 C           6.0    -1.6633368144        0.0783669367        0.2943626171
 C           6.0     0.4214655870       -1.7146806695       -0.2691158779
 O           8.0    -1.4781247703        2.3686014503        0.0990405390
 C           6.0     2.8599302071       -1.0219638142       -0.1533512639
 H           1.0    -3.4374682634       -0.8340872565        0.9075220083
 H           1.0    -0.1237770522       -3.6236818623       -0.7441551967
 H           1.0     3.4089900928        0.8843728650        0.3567424720
 H           1.0     4.3452737307       -2.3666361352       -0.5665965429

          INTERNUCLEAR DISTANCES (ANGS.)
          ------------------------------

                1 C          2 C          3 O          4 C          5 H     

   1 C       0.0000000    1.4853704 *  1.2202819 *  2.4747804 *  1.1044576 *
   2 C       1.4853704 *  0.0000000    2.3911069 *  1.3428354 *  2.1851427 *
   3 O       1.2202819 *  2.3911069 *  0.0000000    2.9166431 *  2.0323358 *
   4 C       2.4747804 *  1.3428354 *  2.9166431 *  0.0000000    3.3808578  
   5 H       1.1044576 *  2.1851427 *  2.0323358 *  3.3808578    0.0000000  
   6 H       2.1917094 *  1.0802525 *  3.2814407    2.1180643 *  2.4531475 *
   7 H       2.7180368 *  2.1214716 *  2.7062249 *  1.0839459 *  3.7467265  
   8 H       3.4628856    2.1107348 *  3.9873960    1.0825731 *  4.2694080  

                6 H          7 H          8 H     

   1 C       2.1917094 *  2.7180368 *  3.4628856  
   2 C       1.0802525 *  2.1214716 *  2.1107348 *
   3 O       3.2814407    2.7062249 *  3.9873960  
   4 C       2.1180643 *  1.0839459 *  1.0825731 *
   5 H       2.4531475 *  3.7467265    4.2694080  
   6 H       0.0000000    3.0862866    2.4584886 *
   7 H       3.0862866    0.0000000    1.8557637 *
   8 H       2.4584886 *  1.8557637 *  0.0000000  

  * ... LESS THAN  3.000


     ATOMIC BASIS SET
     ----------------
 THE CONTRACTED PRIMITIVE FUNCTIONS HAVE BEEN UNNORMALIZED
 THE CONTRACTED BASIS FUNCTIONS ARE NOW NORMALIZED TO UNITY

  SHELL TYPE  PRIMITIVE        EXPONENT          CONTRACTION COEFFICIENT(S)

 C         

      1   S       1          3047.5248800    0.001834737132
      1   S       2           457.3695180    0.014037322813
      1   S       3           103.9486850    0.068842622264
      1   S       4            29.2101553    0.232184443216
      1   S       5             9.2866630    0.467941348435
      1   S       6             3.1639270    0.362311985337

      2   L       7             7.8682723   -0.119332419775    0.068999066591
      2   L       8             1.8812885   -0.160854151696    0.316423960957
      2   L       9             0.5442493    1.143456437840    0.744308290898

      3   L      10             0.1687145    1.000000000000    1.000000000000

      4   D      11             0.8000000    1.000000000000

 C         

      5   S      12          3047.5248800    0.001834737132
      5   S      13           457.3695180    0.014037322813
      5   S      14           103.9486850    0.068842622264
      5   S      15            29.2101553    0.232184443216
      5   S      16             9.2866630    0.467941348435
      5   S      17             3.1639270    0.362311985337

      6   L      18             7.8682723   -0.119332419775    0.068999066591
      6   L      19             1.8812885   -0.160854151696    0.316423960957
      6   L      20             0.5442493    1.143456437840    0.744308290898

      7   L      21             0.1687145    1.000000000000    1.000000000000

      8   D      22             0.8000000    1.000000000000

 O         

      9   S      23          5484.6716600    0.001831074430
      9   S      24           825.2349460    0.013950172200
      9   S      25           188.0469580    0.068445078098
      9   S      26            52.9645000    0.232714335992
      9   S      27            16.8975704    0.470192897984
      9   S      28             5.7996353    0.358520852987

     10   L      29            15.5396162   -0.110777549525    0.070874268231
     10   L      30             3.5999336   -0.148026262701    0.339752839147
     10   L      31             1.0137618    1.130767015354    0.727158577316

     11   L      32             0.2700058    1.000000000000    1.000000000000

     12   D      33             0.8000000    1.000000000000

 C         

     13   S      34          3047.5248800    0.001834737132
     13   S      35           457.3695180    0.014037322813
     13   S      36           103.9486850    0.068842622264
     13   S      37            29.2101553    0.232184443216
     13   S      38             9.2866630    0.467941348435
     13   S      39             3.1639270    0.362311985337

     14   L      40             7.8682723   -0.119332419775    0.068999066591
     14   L      41             1.8812885   -0.160854151696    0.316423960957
     14   L      42             0.5442493    1.143456437840    0.744308290898

     15   L      43             0.1687145    1.000000000000    1.000000000000

     16   D      44             0.8000000    1.000000000000

 H         

     17   S      45            18.7311370    0.033494604338
     17   S      46             2.8253944    0.234726953484
     17   S      47             0.6401217    0.813757326146

     18   S      48             0.1612778    1.000000000000

 H         

     19   S      49            18.7311370    0.033494604338
     19   S      50             2.8253944    0.234726953484
     19   S      51             0.6401217    0.813757326146

     20   S      52             0.1612778    1.000000000000

 H         

     21   S      53            18.7311370    0.033494604338
     21   S      54             2.8253944    0.234726953484
     21   S      55             0.6401217    0.813757326146

     22   S      56             0.1612778    1.000000000000

 H         

     23   S      57            18.7311370    0.033494604338
     23   S      58             2.8253944    0.234726953484
     23   S      59             0.6401217    0.813757326146

     24   S      60             0.1612778    1.000000000000

 TOTAL NUMBER OF BASIS SET SHELLS             =   24
 NUMBER OF CARTESIAN GAUSSIAN BASIS FUNCTIONS =   68
 NUMBER OF ELECTRONS                          =   30
 CHARGE OF MOLECULE                           =    0
 SPIN MULTIPLICITY                            =    1
 NUMBER OF OCCUPIED ORBITALS (ALPHA)          =   15
 NUMBER OF OCCUPIED ORBITALS (BETA )          =   15
 TOTAL NUMBER OF ATOMS                        =    8
 THE NUCLEAR REPULSION ENERGY IS      104.1105428149

 SELECTED MURRAY-HANDY-LAMING RADIAL GRID

 LEGACY BECKE'S FUZZY CELL METHOD

 SELECTED ORIGINAL BECKE'S PARTITION FUNCTION

     LEBEDEV GRID-BASED DFT OPTIONS
     ------------------------------
     DFTTYP=B3LYP   
     NRAD  =      96     NLEB  =     590
     NRAD0 =      24     NLEB0 =     110
     SWOFF =    5.00E-03 (PURE SCF -> DFT)
     SWITCH=    3.00E-04 (COARSE -> TIGHT GRID)
     THRESH=    0.00E+00 GTHRE=    1.00E+00

 GRIMME'S EMPIRICAL DISPERSION CORRECTION= F

     $CONTRL OPTIONS
     ---------------
 SCFTYP=RHF          RUNTYP=OPTIMIZE     EXETYP=RUN     
 MPLEVL=       0     CITYP =NONE         CCTYP =NONE         VBTYP =NONE    
 DFTTYP=B3LYP        TDDFT =NONE    
 MULT  =       1     ICHARG=       0     NZVAR =       0     COORD =UNIQUE  
 PP    =NONE         RELWFN=NONE         LOCAL =NONE         NUMGRD=       F
 ISPHER=      -1     NOSYM =       0     MAXIT =     200     UNITS =ANGS    
 PLTORB=       F     MOLPLT=       F     AIMPAC=       F     FRIEND=        
 NPRINT=       7     IREST =       0     GEOM  =INPUT   
 NORMF =       0     NORMP =       0     ITOL  =      20     ICUT  =       9
 INTTYP=BEST         GRDTYP=BEST         QMTTOL= 1.0E-06

     $SYSTEM OPTIONS
     ---------------
  REPLICATED MEMORY=   250000000 WORDS (ON EVERY NODE).
 DISTRIBUTED MEMDDI=           0 MILLION WORDS IN AGGREGATE,
 MEMDDI DISTRIBUTED OVER   1 PROCESSORS IS           0 WORDS/PROCESSOR.
 TOTAL MEMORY REQUESTED ON EACH PROCESSOR=   250000000 WORDS.
 TIMLIM=        2879.00 MINUTES, OR       2.0 DAYS.
 PARALL= F  BALTYP=  DLB     KDIAG=    0  COREFL= F
 MXSEQ2=     300 MXSEQ3=     150  mem10=         0

          ----------------
          PROPERTIES INPUT
          ----------------

     MOMENTS            FIELD           POTENTIAL          DENSITY
 IEMOM =       1   IEFLD =       0   IEPOT =       0   IEDEN =       0
 WHERE =COMASS     WHERE =NUCLEI     WHERE =NUCLEI     WHERE =NUCLEI  
 OUTPUT=BOTH       OUTPUT=BOTH       OUTPUT=BOTH       OUTPUT=BOTH    
 IEMINT=       0   IEFINT=       0                     IEDINT=       0
                                                       MORB  =       0
          EXTRAPOLATION IN EFFECT
          DIIS IN EFFECT
 ORBITAL PRINTING OPTION: NPREO=     1    68     2     1

     -------------------------------
     INTEGRAL TRANSFORMATION OPTIONS
     -------------------------------
     NWORD  =            0
     CUTOFF = 1.0E-09     MPTRAN =       0
     DIRTRF =       T     AOINTS =DUP     

          ----------------------
          INTEGRAL INPUT OPTIONS
          ----------------------
 NOPK  =       1 NORDER=       0 SCHWRZ=       T

     ------------------------------------------
     THE POINT GROUP IS C1 , NAXIS= 0, ORDER= 1
     ------------------------------------------

     DIMENSIONS OF THE SYMMETRY SUBSPACES ARE
 A   =   68

 ..... DONE SETTING UP THE RUN .....
 STEP CPU TIME =     0.01 TOTAL CPU TIME =          0.0 (      0.0 MIN)
 TOTAL WALL CLOCK TIME=          0.0 SECONDS, CPU UTILIZATION IS    50.00%


          -----------------------------
          STATIONARY POINT LOCATION RUN
          -----------------------------

 OBTAINING INITIAL HESSIAN, HESS=GUESS   
 CARTESIAN COORDINATE OPTIMIZATION USING BADGER'S RULE FORCE CONSTANT GUESS

          PARAMETERS CONTROLLING GEOMETRY SEARCH ARE
          METHOD =QA                  UPHESS =BFGS    
          NNEG   =         0          NFRZ   =         0
          NSTEP  =       999          IFOLOW =         1
          HESS   =GUESS               RESTAR =         F
          IHREP  =         0          HSSEND =         T
          NPRT   =         0          NPUN   =         0
          OPTTOL = 5.000E-04          RMIN   = 1.500E-03
          RMAX   = 1.000E-01          RLIM   = 7.000E-02
          DXMAX  = 3.000E-01          PURIFY =         F
          MOVIE  =         F          TRUPD  =         T
          TRMAX  = 5.000E-01          TRMIN  = 5.000E-02
          ITBMAT =         5          STPT   =         F
          STSTEP = 1.000E-02          PROJCT=          T

 BEGINNING GEOMETRY SEARCH POINT NSERCH=   0 ...

 COORDINATES OF ALL ATOMS ARE (ANGS)
   ATOM   CHARGE       X              Y              Z
 ------------------------------------------------------------
 C           6.0  -0.8802000000   0.0414700000   0.1557700000
 C           6.0   0.2230300000  -0.9073700000  -0.1424100000
 O           8.0  -0.7821900000   1.2534100000   0.0524100000
 C           6.0   1.5134100000  -0.5408000000  -0.0811500000
 H           1.0  -1.8190300000  -0.4413800000   0.4802400000
 H           1.0  -0.0655000000  -1.9175700000  -0.3937900000
 H           1.0   1.8039600000   0.4679900000   0.1887800000
 H           1.0   2.2994200000  -1.2523700000  -0.2998300000

          ********************
          1 ELECTRON INTEGRALS
          ********************
 ...... END OF ONE-ELECTRON INTEGRALS ......
 STEP CPU TIME =     0.01 TOTAL CPU TIME =          0.0 (      0.0 MIN)
 TOTAL WALL CLOCK TIME=          0.0 SECONDS, CPU UTILIZATION IS    50.00%

          -------------
          GUESS OPTIONS
          -------------
          GUESS =HUCKEL            NORB  =       0          NORDER=       0
          MIX   =       F          PRTMO =       F          PUNMO =       F
          TOLZ  = 1.0E-08          TOLE  = 1.0E-05
          SYMDEN=       F          PURIFY=       F

 INITIAL GUESS ORBITALS GENERATED BY HUCKEL   ROUTINE.
 HUCKEL GUESS REQUIRES     42032 WORDS.

 SYMMETRIES FOR INITIAL GUESS ORBITALS FOLLOW.   BOTH SET(S).
    15 ORBITALS ARE OCCUPIED (    4 CORE ORBITALS).
     5=A        6=A        7=A        8=A        9=A       10=A       11=A   
    12=A       13=A       14=A       15=A       16=A       17=A       18=A   
    19=A       20=A       21=A       22=A       23=A       24=A       25=A   
 ...... END OF INITIAL ORBITAL SELECTION ......
 STEP CPU TIME =     0.00 TOTAL CPU TIME =          0.0 (      0.0 MIN)
 TOTAL WALL CLOCK TIME=          0.1 SECONDS, CPU UTILIZATION IS    33.33%

                    ----------------------
                    AO INTEGRAL TECHNOLOGY
                    ----------------------
     S,P,L SHELL ROTATED AXIS INTEGRALS, REPROGRAMMED BY
        KAZUYA ISHIMURA (IMS) AND JOSE SIERRA (SYNSTAR).
     S,P,D,L SHELL ROTATED AXIS INTEGRALS PROGRAMMED BY
        KAZUYA ISHIMURA (INSTITUTE FOR MOLECULAR SCIENCE).
     S,P,D,F,G SHELL TO TOTAL QUARTET ANGULAR MOMENTUM SUM 5,
        ERIC PROGRAM BY GRAHAM FLETCHER (ELORET AND NASA ADVANCED
        SUPERCOMPUTING DIVISION, AMES RESEARCH CENTER).
     S,P,D,F,G,L SHELL GENERAL RYS QUADRATURE PROGRAMMED BY
        MICHEL DUPUIS (PACIFIC NORTHWEST NATIONAL LABORATORY).

          --------------------
          2 ELECTRON INTEGRALS
          --------------------

 DIRECT SCF METHOD SKIPS INTEGRAL STORAGE ON DISK.
 DIRECT TRANSFORMATION SKIPS AO INTEGRAL STORAGE ON DISK.
  ...... END OF TWO-ELECTRON INTEGRALS .....
 STEP CPU TIME =     0.01 TOTAL CPU TIME =          0.0 (      0.0 MIN)
 TOTAL WALL CLOCK TIME=          0.1 SECONDS, CPU UTILIZATION IS    42.86%

          --------------------------
             R-B3LYP SCF CALCULATION
          --------------------------

     NUCLEAR ENERGY =       104.1105428149
     MAXIT =  200     NPUNCH=    2
     EXTRAP=T  DAMP=F  SHIFT=F  RSTRCT=F  DIIS=T  DEM=F  SOSCF=F
         DENSITY MATRIX CONVERGENCE THRESHOLD=  2.00E-05
     COARSE -> FINE DFT GRID SWITCH THRESHOLD=  3.00E-04 (SWITCH IN $DFT)
                   HF -> DFT SWITCH THRESHOLD=  5.00E-03 (SWOFF IN $DFT)
     MEMORY REQUIRED FOR RHF ITERS=    620217 WORDS.

 DIRECT SCF CALCULATION, SCHWRZ=T   FDIFF=T,  DIRTHR=  0.00E+00 NITDIR=10
 SCHWARZ INEQUALITY OVERHEAD:      2344 INTEGRALS, T=        0.00

 DFT CODE IS SWITCHING FROM THE FINE GRID NRAD= 96,  NLEB=  590
                      TO THE COARSE GRID NRAD0= 24, NLEB0=  110

     EXCHANGE FUNCTIONAL   =B88&HFX   
     CORRELATION FUNCTIONAL=LYP88&VWN5
     DFT THRESHOLD         =.883E-08
     GRID CHANGE THRESHOLD =.300E-03
 FOR AN EULER-MACLAURIN QUADRATURE USING  96 RADIAL POINTS:
 SMALLEST GAUSSIAN PRIMITIVE EXPONENT=        0.1612777588 OF TYPE -S-
 ON ATOM NUMBER   5 HAS RADIAL NORMALIZATION=  1.000000
  LARGEST GAUSSIAN PRIMITIVE EXPONENT=     5484.6716600000 OF TYPE -S-
 ON ATOM NUMBER   3 HAS RADIAL NORMALIZATION=  1.000000
 DFT IS SWITCHED OFF, PERFORMING PURE SCF UNTIL SWOFF THRESHOLD IS REACHED.

                                                                                   NONZERO     BLOCKS
 ITER EX DEM     TOTAL ENERGY        E CHANGE  DENSITY CHANGE    DIIS ERROR      INTEGRALS    SKIPPED
          * * *   INITIATING DIIS PROCEDURE   * * *
   1  0  0     -190.2048821153  -190.2048821153   0.298293184   0.422034967        2645630       3604
   2  1  0     -190.6943318961    -0.4894497808   0.137178591   0.099941602        2645371       3920
   3  2  0     -190.7329564445    -0.0386245484   0.068449930   0.073729261        2640526       4415
   4  3  0     -190.7551154543    -0.0221590098   0.010301930   0.007480903        2633097       4841
   5  4  0     -190.7557403602    -0.0006249059   0.006003859   0.002734936        2616332       5509
   6  5  0     -190.7558452677    -0.0001049075   0.002089993   0.000934183        2603475       6056
 CONVERGED TO SWOFF, SO DFT CALCULATION IS NOW SWITCHED ON.
          * * *   INITIATING DIIS PROCEDURE   * * *
   7  6  0     -191.7764373009    -1.0205920332   0.115377448   0.097410615        2645876       3602
   8  7  0     -191.7940398906    -0.0176025897   0.065859668   0.027739921        2641601       4280
   9  8  0     -191.7894048634     0.0046350273   0.053131314   0.038422325        2634107       4710
  10  9  0     -191.7981926626    -0.0087877992   0.009171672   0.008667805        2626557       5064
  11 10  0     -191.7985133243    -0.0003206617   0.000969335   0.000978649        2606452       5838
  12 11  0     -191.7985161381    -0.0000028138   0.000644190   0.000394387        2573611       7153
  13 12  0     -191.7985169997    -0.0000008616   0.000136580   0.000140767        2536101       8285
 DFT CODE IS SWITCHING BACK TO THE FINE GRID
          * * *   INITIATING DIIS PROCEDURE   * * *
  14 13  0     -191.7967386950     0.0017783046   0.003998217   0.001775104        2645919       3568
  15 14  0     -191.7967471667    -0.0000084717   0.000980902   0.000299821        2593073       6647
  16 15  0     -191.7967464015     0.0000007652   0.000592874   0.000480380        2549998       8119
  17 16  0     -191.7967475871    -0.0000011856   0.000068435   0.000056456        2527188       8717
  18 17  0     -191.7967475990    -0.0000000119   0.000026249   0.000018267        2476239      10130
  19 18  0     -191.7967476021    -0.0000000031   0.000004242   0.000004989        2406954      11618
  20 19  0     -191.7967476022    -0.0000000001   0.000001180   0.000000626        2283035      14729

          -----------------
          DENSITY CONVERGED
          -----------------
     TIME TO FORM FOCK OPERATORS=       9.5 SECONDS (       0.5 SEC/ITER)
     FOCK TIME ON FIRST ITERATION=       0.1, LAST ITERATION=       1.1
     TIME TO SOLVE SCF EQUATIONS=       0.1 SECONDS (       0.0 SEC/ITER)

 FINAL R-B3LYP ENERGY IS     -191.7967476022 AFTER  20 ITERATIONS
 DFT EXCHANGE + CORRELATION ENERGY =       -21.1483885218
 TOTAL ELECTRON NUMBER             =        29.9999972239

          ------------
          EIGENVECTORS
          ------------

                      1          2          3          4          5
                  -19.1450   -10.2746   -10.2098   -10.2034    -1.0364
                     A          A          A          A          A   
    1  C  1  S    0.000008   0.992827  -0.000151  -0.002135  -0.118023
    2  C  1  S    0.000513   0.048737  -0.000186  -0.000338   0.229267
    3  C  1  X    0.000042   0.000139  -0.000073  -0.000212   0.019422
    4  C  1  Y   -0.000015   0.000779  -0.000007   0.000145   0.178139
    5  C  1  Z   -0.000013  -0.000093   0.000016   0.000070  -0.016448
    6  C  1  S   -0.002727  -0.009237   0.000612   0.004667   0.084931
    7  C  1  X   -0.000712  -0.000163   0.000519   0.002166  -0.014132
    8  C  1  Y   -0.003143   0.003517  -0.000105  -0.000520  -0.031047
    9  C  1  Z    0.000328  -0.000011  -0.000156  -0.000470   0.005095
   10  C  1 XX   -0.000060  -0.009448   0.000041  -0.000281  -0.017389
   11  C  1 YY   -0.000843  -0.008434  -0.000017  -0.000349   0.023045
   12  C  1 ZZ   -0.000033  -0.009673  -0.000072  -0.000141  -0.019023
   13  C  1 XY   -0.000087   0.000062  -0.000016   0.000211   0.004968
   14  C  1 XZ    0.000010  -0.000080  -0.000008   0.000042  -0.001006
   15  C  1 YZ    0.000089  -0.000114   0.000018  -0.000102  -0.004369
   16  C  2  S   -0.000011   0.001892   0.064135   0.990679  -0.020023
   17  C  2  S   -0.000036   0.000008   0.002738   0.049570   0.036086
   18  C  2  X   -0.000071   0.000263  -0.000402   0.000052  -0.015241
   19  C  2  Y   -0.000011  -0.000184  -0.000128   0.000137   0.023849
   20  C  2  Z    0.000017  -0.000062  -0.000022   0.000084   0.004503
   21  C  2  S    0.000721   0.002424   0.003204  -0.015658   0.021270
   22  C  2  X    0.001402  -0.002935   0.001993  -0.000758   0.015216
   23  C  2  Y    0.000774   0.000056   0.000157  -0.002206   0.014938
   24  C  2  Z   -0.000111   0.000303   0.000012  -0.000559  -0.001099
   25  C  2 XX    0.000087  -0.000469  -0.000932  -0.009080   0.002499
   26  C  2 YY   -0.000077  -0.000297  -0.000836  -0.009391   0.003859
   27  C  2 ZZ   -0.000027  -0.000134  -0.000749  -0.009596  -0.002222
   28  C  2 XY    0.000011   0.000170  -0.000004   0.000098  -0.004786
   29  C  2 XZ    0.000004   0.000059  -0.000001  -0.000002  -0.000780
   30  C  2 YZ   -0.000008  -0.000031  -0.000026   0.000071   0.001504
   31  O  3  S    0.992765  -0.000137  -0.000002   0.000022  -0.194702
   32  O  3  S    0.025707   0.000372  -0.000001   0.000072   0.426299
   33  O  3  X   -0.000086  -0.000006  -0.000007   0.000004  -0.011202
   34  O  3  Y   -0.001153   0.000053   0.000008  -0.000022  -0.160810
   35  O  3  Z    0.000102   0.000013   0.000004   0.000035   0.013646
   36  O  3  S    0.013661  -0.002761  -0.000092  -0.000924   0.394891
   37  O  3  X   -0.000039   0.000271  -0.000083  -0.000240  -0.001147
   38  O  3  Y   -0.001547   0.001867   0.000011   0.000231  -0.054211
   39  O  3  Z    0.000139  -0.000261   0.000010  -0.000051   0.004630
   40  O  3 XX   -0.008088   0.000256  -0.000007   0.000099  -0.009731
   41  O  3 YY   -0.007576  -0.000321   0.000007   0.000127   0.010365
   42  O  3 ZZ   -0.008105   0.000378  -0.000029  -0.000011  -0.006025
   43  O  3 XY    0.000029  -0.000078   0.000010   0.000030   0.001570
   44  O  3 XZ   -0.000009   0.000055  -0.000009  -0.000059   0.001664
   45  O  3 YZ   -0.000052   0.000083  -0.000002  -0.000011  -0.001791
   46  C  4  S    0.000004  -0.000039   0.990611  -0.064598  -0.007055
   47  C  4  S    0.000018  -0.000206   0.049128  -0.003732   0.013125
   48  C  4  X    0.000037  -0.000013  -0.000054   0.000351  -0.008554
   49  C  4  Y    0.000038  -0.000069  -0.000072   0.000106   0.001920
   50  C  4  Z   -0.000014  -0.000033   0.000023   0.000017   0.000272
   51  C  4  S   -0.001227   0.001771  -0.012671   0.006299  -0.009137
   52  C  4  X    0.000695  -0.001124   0.000847  -0.002289   0.003492
   53  C  4  Y    0.000184  -0.000115   0.000394   0.000034   0.001967
   54  C  4  Z    0.000149  -0.000011   0.000055   0.000066   0.001320
   55  C  4 XX   -0.000042   0.000123  -0.009228   0.000285   0.000931
   56  C  4 YY    0.000016   0.000001  -0.009460   0.000389  -0.000046
   57  C  4 ZZ    0.000016  -0.000085  -0.009752   0.000517  -0.000890
   58  C  4 XY   -0.000051   0.000060   0.000074  -0.000088  -0.000599
   59  C  4 XZ   -0.000029   0.000016   0.000002  -0.000012  -0.000160
   60  C  4 YZ   -0.000007   0.000039   0.000100  -0.000038   0.000118
   61  H  5  S   -0.000048  -0.000244   0.000007  -0.000067   0.028064
   62  H  5  S   -0.000582   0.002448   0.000257   0.000350  -0.016084
   63  H  6  S    0.000108  -0.000211  -0.000098  -0.000394   0.006131
   64  H  6  S    0.000276  -0.000414   0.000049   0.001589   0.004912
   65  H  7  S    0.000089  -0.000115  -0.000340  -0.000108   0.003976
   66  H  7  S   -0.000212   0.000119   0.002083  -0.000546   0.003066
   67  H  8  S    0.000014  -0.000020  -0.000337  -0.000022   0.001648
   68  H  8  S   -0.000065   0.000314   0.002208  -0.000017   0.001120

                      6          7          8          9         10
                   -0.7891    -0.6571    -0.5455    -0.5049    -0.4426
                     A          A          A          A          A   
    1  C  1  S   -0.047804   0.118856  -0.091939  -0.010725   0.030026
    2  C  1  S    0.095430  -0.250306   0.198679   0.027724  -0.075941
    3  C  1  X    0.065894   0.006086  -0.169895   0.282039   0.060471
    4  C  1  Y   -0.117152   0.183850  -0.047183   0.000967  -0.259164
    5  C  1  Z   -0.010367  -0.003310   0.070893  -0.058936  -0.041080
    6  C  1  S    0.079739  -0.203794   0.200258   0.016995  -0.073418
    7  C  1  X    0.019536   0.016506  -0.055881   0.091672   0.009260
    8  C  1  Y   -0.014703   0.069681  -0.042835   0.007440  -0.061430
    9  C  1  Z   -0.002176  -0.005439   0.024977  -0.013843  -0.018964
   10  C  1 XX    0.009642  -0.005222   0.004097   0.001860   0.003284
   11  C  1 YY   -0.005947   0.009409  -0.011725  -0.006925   0.001107
   12  C  1 ZZ   -0.003202   0.007070  -0.005985  -0.001288   0.006319
   13  C  1 XY   -0.007296   0.001526   0.009391  -0.002204  -0.001610
   14  C  1 XZ   -0.003691   0.005899  -0.003569   0.001251  -0.000843
   15  C  1 YZ    0.002373  -0.001070  -0.002907   0.000914   0.001216
   16  C  2  S   -0.164042   0.052988   0.096268  -0.000484   0.006413
   17  C  2  S    0.321454  -0.107162  -0.197873   0.005191  -0.016466
   18  C  2  X    0.061542   0.222057  -0.034635  -0.027133  -0.281073
   19  C  2  Y    0.033682  -0.009956   0.123789   0.293590  -0.058852
   20  C  2  Z    0.011291  -0.017468   0.048799   0.067481  -0.004871
   21  C  2  S    0.217568  -0.091304  -0.191228  -0.004058   0.011936
   22  C  2  X   -0.005707   0.052694   0.017895  -0.006772  -0.114011
   23  C  2  Y   -0.017162  -0.000589   0.052014   0.091247  -0.007866
   24  C  2  Z   -0.001376  -0.002882   0.017325   0.018607   0.002538
   25  C  2 XX    0.005249   0.003062   0.011703  -0.002951  -0.003350
   26  C  2 YY   -0.001825  -0.005057  -0.006975  -0.002958   0.007765
   27  C  2 ZZ   -0.014706   0.003699   0.007312   0.000353   0.000330
   28  C  2 XY    0.003807   0.008958  -0.005866  -0.003816   0.000453
   29  C  2 XZ    0.000074   0.003321  -0.002961  -0.000102  -0.000354
   30  C  2 YZ    0.004791  -0.003954  -0.002899  -0.000916   0.002138
   31  O  3  S    0.043536  -0.057803   0.055009   0.019704  -0.068265
   32  O  3  S   -0.097631   0.134873  -0.124143  -0.043885   0.133316
   33  O  3  X    0.019477   0.008308  -0.073468   0.164341   0.088318
   34  O  3  Y    0.003177   0.047823  -0.107604  -0.066225   0.349831
   35  O  3  Z   -0.004912  -0.000735   0.038838  -0.026097  -0.075111
   36  O  3  S   -0.110284   0.142519  -0.178184  -0.076247   0.326278
   37  O  3  X    0.006382   0.004624  -0.034494   0.089071   0.051006
   38  O  3  Y   -0.000906   0.034965  -0.056197  -0.033728   0.167453
   39  O  3  Z   -0.001553  -0.001283   0.019594  -0.014410  -0.039679
   40  O  3 XX    0.001476   0.000946   0.001507  -0.000726  -0.004588
   41  O  3 YY    0.002333  -0.007708   0.010542   0.007156  -0.026768
   42  O  3 ZZ    0.000264   0.001473  -0.000274  -0.001216  -0.003486
   43  O  3 XY   -0.001970  -0.001161   0.007342  -0.013374  -0.006218
   44  O  3 XZ   -0.000245   0.000542  -0.001270   0.001005   0.001537
   45  O  3 YZ    0.000386   0.000569  -0.004019   0.001835   0.005855
   46  C  4  S   -0.142220  -0.127668  -0.065944   0.006610   0.004581
   47  C  4  S    0.275979   0.255008   0.135888  -0.015196  -0.013048
   48  C  4  X   -0.096132   0.047111   0.190930  -0.120788   0.243111
   49  C  4  Y   -0.026762  -0.005679   0.106432   0.220498   0.170791
   50  C  4  Z   -0.002915  -0.004094   0.029185   0.059468   0.039812
   51  C  4  S    0.218519   0.224838   0.138829  -0.014790   0.017306
   52  C  4  X   -0.009653   0.026086   0.078167  -0.044448   0.069102
   53  C  4  Y    0.000031   0.000556   0.036404   0.089846   0.057614
   54  C  4  Z    0.001070  -0.000902   0.012193   0.024537   0.011576
   55  C  4 XX    0.007854  -0.002752  -0.006493   0.000489  -0.005249
   56  C  4 YY   -0.000786   0.005793   0.009598  -0.001415   0.012947
   57  C  4 ZZ   -0.013705  -0.010650  -0.004115   0.000155   0.000685
   58  C  4 XY    0.002670  -0.002427  -0.007528   0.003022  -0.001021
   59  C  4 XZ   -0.000330  -0.000727  -0.002563   0.001202   0.000215
   60  C  4 YZ    0.004489   0.005775   0.005291  -0.000347   0.004162
   61  H  5  S    0.027915  -0.122989   0.170989  -0.118804  -0.004341
   62  H  5  S    0.008453  -0.038368   0.088497  -0.084643   0.007184
   63  H  6  S    0.086300  -0.060462  -0.147514  -0.152004   0.075262
   64  H  6  S    0.007715  -0.023058  -0.071774  -0.110028   0.067374
   65  H  7  S    0.071117   0.100183   0.136559   0.090439   0.138662
   66  H  7  S    0.006775   0.034283   0.062634   0.051146   0.123507
   67  H  8  S    0.072511   0.113655   0.095152  -0.136028   0.032501
   68  H  8  S    0.012217   0.039402   0.046166  -0.084956   0.031673

                     11         12         13         14         15
                   -0.4276    -0.3882    -0.3832    -0.2826    -0.2532
                     A          A          A          A          A   
    1  C  1  S    0.029203   0.015622   0.010192   0.001088   0.000450
    2  C  1  S   -0.076155  -0.031437  -0.017110  -0.001276  -0.014780
    3  C  1  X   -0.196994  -0.186446   0.051447   0.026096  -0.131538
    4  C  1  Y   -0.136189   0.121451   0.174766   0.012142   0.020616
    5  C  1  Z    0.179925  -0.207461   0.225073  -0.043849   0.039190
    6  C  1  S   -0.041228  -0.072878  -0.059366  -0.009638   0.036784
    7  C  1  X   -0.047281  -0.097042   0.024212  -0.003035   0.059766
    8  C  1  Y    0.027977   0.043554   0.035558  -0.012708  -0.056937
    9  C  1  Z    0.076197  -0.120231   0.136128  -0.028983  -0.020135
   10  C  1 XX    0.018127  -0.004943  -0.010663  -0.003882   0.009676
   11  C  1 YY   -0.003689   0.003460   0.012187   0.004445  -0.008360
   12  C  1 ZZ    0.002598   0.002206  -0.005714  -0.003012   0.000520
   13  C  1 XY    0.000988  -0.005659   0.002452  -0.012051   0.044948
   14  C  1 XZ   -0.000897  -0.001958   0.005934   0.010746  -0.005277
   15  C  1 YZ    0.002806  -0.011643   0.015894  -0.019110  -0.016450
   16  C  2  S   -0.015152  -0.008637  -0.004281  -0.003812   0.037891
   17  C  2  S    0.034891   0.012595   0.005280   0.003116  -0.077530
   18  C  2  X    0.213180   0.034094  -0.072249  -0.009233   0.158871
   19  C  2  Y    0.058389  -0.115066  -0.226251  -0.080092  -0.159871
   20  C  2  Z    0.079095  -0.141340   0.045541   0.364312   0.000456
   21  C  2  S    0.002149   0.058086   0.027798   0.048099  -0.302380
   22  C  2  X    0.014061   0.007925  -0.014480   0.022398   0.112820
   23  C  2  Y   -0.007332  -0.018827  -0.076623  -0.044638  -0.118019
   24  C  2  Z    0.040928  -0.064302   0.033714   0.258666  -0.001863
   25  C  2 XX    0.002511  -0.004709  -0.012684  -0.000285  -0.000380
   26  C  2 YY   -0.011247   0.009109   0.016433  -0.002364   0.003742
   27  C  2 ZZ    0.001138  -0.003266   0.001850   0.001088   0.001450
   28  C  2 XY    0.010542   0.014412   0.010940  -0.004574   0.005922
   29  C  2 XZ   -0.000010   0.006654   0.002006   0.013858   0.002079
   30  C  2 YZ    0.000281  -0.002399   0.009005   0.002977  -0.001277
   31  O  3  S   -0.042688   0.016409   0.020776  -0.002131   0.000375
   32  O  3  S    0.092188  -0.030271  -0.040234   0.007729  -0.006820
   33  O  3  X   -0.100921  -0.204744   0.041075  -0.116965   0.541229
   34  O  3  Y    0.298323  -0.128066  -0.168832  -0.043522  -0.067242
   35  O  3  Z    0.120607  -0.241603   0.336535  -0.227144  -0.199608
   36  O  3  S    0.158848  -0.087667  -0.095547   0.009745   0.025965
   37  O  3  X   -0.058641  -0.119449   0.028134  -0.087289   0.383479
   38  O  3  Y    0.168907  -0.065343  -0.092154  -0.029656  -0.053198
   39  O  3  Z    0.069197  -0.149620   0.208298  -0.159677  -0.140578
   40  O  3 XX    0.003497   0.003353  -0.000351   0.000346  -0.003129
   41  O  3 YY   -0.021265   0.007978   0.008251   0.003170   0.001625
   42  O  3 ZZ    0.003539  -0.001640   0.002873  -0.001551  -0.003432
   43  O  3 XY    0.007737   0.013414  -0.003263   0.004954  -0.016985
   44  O  3 XZ   -0.001034  -0.000318  -0.000828   0.001943   0.002163
   45  O  3 YZ   -0.008250   0.016326  -0.021835   0.010788   0.006320
   46  C  4  S   -0.011827  -0.005590   0.012298   0.000774  -0.003816
   47  C  4  S    0.025645   0.014285  -0.027118  -0.001548   0.002743
   48  C  4  X   -0.280669  -0.081223   0.069315   0.021907  -0.053382
   49  C  4  Y    0.094086   0.265595   0.176574  -0.095709  -0.020270
   50  C  4  Z    0.066415   0.017875   0.106675   0.362109   0.039434
   51  C  4  S    0.063095   0.013680  -0.037843  -0.022294   0.015955
   52  C  4  X   -0.119127  -0.004067   0.030630   0.036303  -0.087718
   53  C  4  Y    0.024472   0.101621   0.066469  -0.062267  -0.002870
   54  C  4  Z    0.025581  -0.005356   0.058069   0.252903   0.022915
   55  C  4 XX   -0.000942  -0.009743  -0.008039  -0.000926  -0.004441
   56  C  4 YY   -0.005893   0.008262   0.011664   0.001701   0.003385
   57  C  4 ZZ   -0.000858   0.000776   0.001409  -0.000856  -0.001500
   58  C  4 XY    0.013500   0.017202   0.012221   0.003114   0.005887
   59  C  4 XZ    0.000974   0.009136  -0.000559  -0.014222   0.000461
   60  C  4 YZ   -0.002185   0.002962   0.002797  -0.004716  -0.000414
   61  H  5  S    0.133442   0.007760  -0.051039  -0.045956   0.170116
   62  H  5  S    0.134754   0.009284  -0.050888  -0.060853   0.268564
   63  H  6  S   -0.065225   0.107088   0.168270  -0.003628   0.048190
   64  H  6  S   -0.070882   0.104509   0.164660  -0.003170   0.086372
   65  H  7  S    0.026734   0.160154   0.134753  -0.000282   0.010222
   66  H  7  S    0.024038   0.120039   0.124190  -0.016633   0.068172
   67  H  8  S   -0.166406  -0.159670  -0.077353   0.004394  -0.034825
   68  H  8  S   -0.142743  -0.158918  -0.066993  -0.000176  -0.022357

                     16         17         18         19         20
                   -0.0614     0.0561     0.1088     0.1320     0.1613
                     A          A          A          A          A   
    1  C  1  S   -0.001736   0.000875   0.056101   0.056670   0.095762
    2  C  1  S    0.000186   0.008840  -0.100525  -0.071988  -0.144896
    3  C  1  X   -0.107874  -0.131946   0.111418   0.104826   0.182522
    4  C  1  Y   -0.018783  -0.043391   0.102545   0.066393   0.135977
    5  C  1  Z   -0.331553  -0.364060  -0.113398   0.012940  -0.075650
    6  C  1  S    0.038610  -0.085421  -0.783338  -1.047035  -1.382855
    7  C  1  X   -0.098342  -0.168054   0.235221   0.235143   0.533889
    8  C  1  Y    0.028395  -0.141229   0.227924   0.083778   0.661404
    9  C  1  Z   -0.315658  -0.474786  -0.245728  -0.021321  -0.147329
   10  C  1 XX    0.003030  -0.002031   0.017889  -0.002139   0.002148
   11  C  1 YY   -0.002899   0.014392  -0.004389   0.006933   0.021260
   12  C  1 ZZ    0.000020  -0.012655  -0.002206   0.001199  -0.000037
   13  C  1 XY    0.010032   0.002371  -0.000415   0.002713  -0.007430
   14  C  1 XZ   -0.003304   0.017178   0.002537  -0.004019  -0.005098
   15  C  1 YZ    0.028678   0.005272   0.001078   0.000545  -0.000987
   16  C  2  S    0.002065  -0.002980   0.043215   0.000139  -0.090934
   17  C  2  S    0.006894   0.015041  -0.058656   0.004751   0.142426
   18  C  2  X    0.003717   0.008426   0.021195  -0.083236  -0.076813
   19  C  2  Y    0.055765  -0.124719   0.252597   0.043865  -0.094152
   20  C  2  Z   -0.193130   0.381586   0.122284  -0.019394  -0.029426
   21  C  2  S   -0.080887  -0.020898  -0.820289   0.012612   1.392137
   22  C  2  X   -0.085051  -0.079080  -0.006887  -0.409688  -0.423926
   23  C  2  Y    0.036465  -0.219043   0.536341   0.096109  -0.468270
   24  C  2  Z   -0.260557   0.568561   0.283286   0.016172  -0.016453
   25  C  2 XX    0.009713   0.013230  -0.011802   0.001099  -0.011243
   26  C  2 YY   -0.004539  -0.002564   0.017486  -0.001035  -0.000443
   27  C  2 ZZ   -0.003050  -0.008381   0.001807   0.002365  -0.002961
   28  C  2 XY   -0.007114   0.001192   0.012659   0.012242  -0.003685
   29  C  2 XZ    0.028254  -0.002570   0.005542   0.001989  -0.001028
   30  C  2 YZ   -0.004072  -0.018986  -0.001420  -0.002466  -0.004204
   31  O  3  S    0.003686  -0.011432   0.003831  -0.022168  -0.001289
   32  O  3  S   -0.001105   0.016568  -0.013593   0.054816   0.035582
   33  O  3  X    0.106710   0.090692  -0.060767   0.023137  -0.054305
   34  O  3  Y    0.036980  -0.031183   0.002727  -0.054266  -0.081155
   35  O  3  Z    0.320137   0.242709   0.058524   0.000393   0.014819
   36  O  3  S   -0.060475   0.148521  -0.028165   0.223221  -0.177799
   37  O  3  X    0.103873   0.101613  -0.090857  -0.051786  -0.111357
   38  O  3  Y    0.048207  -0.061749   0.006301  -0.140796  -0.015562
   39  O  3  Z    0.313193   0.284401   0.092539   0.006456   0.019301
   40  O  3 XX    0.002807  -0.004414   0.004144  -0.007373   0.013879
   41  O  3 YY    0.001656  -0.001093  -0.002692   0.009579   0.001106
   42  O  3 ZZ    0.003766  -0.007043  -0.003892  -0.001792   0.006131
   43  O  3 XY   -0.000771   0.002714  -0.001830  -0.002377  -0.001431
   44  O  3 XZ    0.000192   0.002570  -0.000787  -0.002931  -0.002368
   45  O  3 YZ   -0.001736   0.004087   0.000680  -0.002121   0.002680
   46  C  4  S   -0.007579  -0.019205   0.034721  -0.116657   0.060188
   47  C  4  S    0.013096   0.039210  -0.058818   0.179767  -0.104274
   48  C  4  X   -0.015604  -0.024770  -0.131718   0.189182   0.015317
   49  C  4  Y   -0.105716   0.046708   0.161880   0.079533  -0.107175
   50  C  4  Z    0.339678  -0.252013   0.019704   0.036995  -0.025032
   51  C  4  S    0.118631   0.245598  -0.467411   1.937452  -0.591362
   52  C  4  X   -0.056762  -0.038067  -0.398090   0.461786   0.048385
   53  C  4  Y   -0.143750   0.065316   0.294123   0.188794  -0.214771
   54  C  4  Z    0.413097  -0.449515   0.023643   0.060667  -0.086805
   55  C  4 XX    0.000207  -0.003008   0.009540   0.002579   0.008940
   56  C  4 YY   -0.001372   0.003927  -0.002529  -0.015270   0.001978
   57  C  4 ZZ   -0.000511  -0.004168  -0.000418  -0.005839   0.002079
   58  C  4 XY   -0.001900   0.009531  -0.019473  -0.004301   0.004420
   59  C  4 XZ    0.010649  -0.021568  -0.008601   0.001386   0.002500
   60  C  4 YZ    0.000636  -0.009009  -0.002731  -0.002586  -0.001544
   61  H  5  S    0.014077  -0.027523   0.040742   0.036844   0.062522
   62  H  5  S    0.019133  -0.109024   0.921116   0.794111   1.586853
   63  H  6  S   -0.027528  -0.039437   0.061824   0.021431  -0.069278
   64  H  6  S   -0.058866  -0.191013   1.251308   0.057599  -1.315856
   65  H  7  S   -0.002820   0.002539  -0.037530  -0.095631   0.038181
   66  H  7  S    0.019641  -0.007089  -0.202858  -1.376750   0.705660
   67  H  8  S   -0.006618  -0.016803   0.078985  -0.036414   0.019416
   68  H  8  S   -0.019772  -0.156331   1.024413  -1.108402   0.079854

                     21         22         23         24         25
                    0.1908     0.2694     0.3198     0.3343     0.5134
                     A          A          A          A          A   
    1  C  1  S    0.022796   0.036739  -0.013098  -0.086565   0.038443
    2  C  1  S   -0.059729   0.006849  -0.108943   0.127946  -0.013171
    3  C  1  X   -0.239369  -0.013631   0.016966   0.414415  -0.334418
    4  C  1  Y    0.049718  -0.181331   0.014962  -0.156777  -0.011341
    5  C  1  Z    0.072249   0.060501  -0.017013  -0.159976  -0.475068
    6  C  1  S    0.056708  -1.276500   0.818583   2.079603   0.000733
    7  C  1  X   -0.322806   0.143608   0.792317   1.623885   0.204730
    8  C  1  Y   -0.010836  -2.056561   1.088968  -0.837807  -0.405462
    9  C  1  Z    0.143618   0.167441  -0.065321  -0.493826   0.479611
   10  C  1 XX    0.008382  -0.020704  -0.023037  -0.005980   0.060863
   11  C  1 YY    0.005181   0.020200   0.027966  -0.013401   0.005252
   12  C  1 ZZ   -0.005095  -0.014378  -0.002599   0.011370  -0.022046
   13  C  1 XY   -0.002188   0.009088   0.001072   0.014981  -0.032827
   14  C  1 XZ   -0.006804  -0.003732   0.010434   0.005969  -0.040010
   15  C  1 YZ    0.000690  -0.001274   0.002424  -0.003979  -0.000874
   16  C  2  S   -0.073696   0.029967   0.088293   0.066520  -0.044922
   17  C  2  S    0.116510   0.020572  -0.099193  -0.085136   0.014766
   18  C  2  X   -0.084671  -0.018893  -0.234425   0.208187  -0.409071
   19  C  2  Y   -0.097712   0.031590  -0.190136  -0.241750   0.283657
   20  C  2  Z   -0.024649  -0.094938  -0.043614  -0.083330  -0.228113
   21  C  2  S    1.231907  -1.365324  -3.169770  -1.058300   0.087270
   22  C  2  X   -0.063196  -0.096960  -2.397706   1.902264   1.112046
   23  C  2  Y   -0.676797  -0.018738  -1.565305  -1.695094  -0.013978
   24  C  2  Z   -0.220772  -0.253322  -0.247434  -0.446830   0.105115
   25  C  2 XX   -0.012542   0.037308  -0.015858  -0.002658  -0.054398
   26  C  2 YY    0.002789  -0.021541  -0.000917   0.022818   0.006380
   27  C  2 ZZ    0.000320   0.001090   0.008904  -0.006417   0.020011
   28  C  2 XY    0.030401   0.011814   0.005401  -0.038548  -0.010420
   29  C  2 XZ    0.008047  -0.008229   0.002874  -0.007973  -0.012418
   30  C  2 YZ    0.000903  -0.002475  -0.001896   0.007482  -0.027381
   31  O  3  S   -0.010480  -0.106754   0.042734   0.006534  -0.018692
   32  O  3  S    0.035801   0.095884  -0.025360   0.005102   0.081266
   33  O  3  X    0.105158  -0.087197  -0.065096  -0.110375  -0.000557
   34  O  3  Y   -0.031694  -0.187739  -0.010953   0.093845  -0.015309
   35  O  3  Z   -0.018489   0.002320  -0.026595   0.055062  -0.024618
   36  O  3  S    0.065118   2.079414  -1.067712  -0.092338   0.268417
   37  O  3  X    0.137533  -0.156565  -0.072739  -0.355058  -0.002117
   38  O  3  Y   -0.069420  -0.860740   0.398566   0.148896  -0.163796
   39  O  3  Z   -0.047325   0.068531  -0.060270   0.113027  -0.029855
   40  O  3 XX    0.001936  -0.064805   0.034259  -0.005040   0.020106
   41  O  3 YY    0.004904  -0.006132  -0.016865   0.016583   0.020301
   42  O  3 ZZ    0.002239  -0.065898   0.031562   0.012539  -0.005460
   43  O  3 XY    0.004037   0.008609   0.001020  -0.010819   0.021857
   44  O  3 XZ   -0.002741  -0.000355   0.002482   0.006317  -0.000192
   45  O  3 YZ   -0.001559  -0.008991   0.003968   0.004925   0.029143
   46  C  4  S    0.016192  -0.012238  -0.077527   0.006324   0.004805
   47  C  4  S   -0.017665   0.052819  -0.020046  -0.002776  -0.194718
   48  C  4  X   -0.092745  -0.209611  -0.018414   0.053142   0.372816
   49  C  4  Y    0.328690  -0.036741  -0.001280   0.207948   0.233021
   50  C  4  Z    0.102398   0.021014  -0.012652   0.037398  -0.294418
   51  C  4  S   -0.265111   0.116763   3.232355  -0.598824  -0.522190
   52  C  4  X   -0.259374  -0.609758  -2.850627   0.212361  -0.193784
   53  C  4  Y    1.381461  -0.182206  -0.423974   1.081414  -0.280564
   54  C  4  Z    0.398108   0.072678  -0.055383   0.278119   0.258900
   55  C  4 XX    0.008110  -0.012922  -0.024062  -0.023683  -0.028786
   56  C  4 YY   -0.008700   0.007592   0.028271   0.028295  -0.006434
   57  C  4 ZZ    0.002879   0.003309  -0.009438  -0.000614   0.005860
   58  C  4 XY   -0.002014   0.007301  -0.026166   0.033472  -0.028592
   59  C  4 XZ   -0.000639   0.010357  -0.007708   0.009302   0.012418
   60  C  4 YZ   -0.003104   0.008050   0.013234   0.009103   0.009728
   61  H  5  S    0.028783   0.039866  -0.088143   0.014552   0.184425
   62  H  5  S   -0.442895  -0.180457   0.462513   0.689262  -0.135756
   63  H  6  S    0.017952  -0.095921   0.005699   0.000087  -0.059509
   64  H  6  S   -1.206836   0.108626  -1.041352  -0.724967   0.202968
   65  H  7  S   -0.047116   0.068814   0.065223   0.119413   0.037040
   66  H  7  S   -1.374649   0.368986   0.055740  -1.030044   0.133725
   67  H  8  S    0.047512  -0.012729   0.107924  -0.134204  -0.000491
   68  H  8  S    1.553566   0.385297   0.531475   0.601384  -0.122061

                     26         27         28         29         30
                    0.5189     0.5743     0.5829     0.6088     0.6439
                     A          A          A          A          A   
    1  C  1  S    0.041392  -0.015967   0.020072  -0.009988  -0.017923
    2  C  1  S    0.033510  -0.081398   0.355165  -0.377828   0.149104
    3  C  1  X    0.026132  -0.386448   0.235442  -0.098122   0.001009
    4  C  1  Y   -0.040474   0.073203  -0.360439   0.126099   0.209930
    5  C  1  Z    0.430495  -0.379579  -0.531429  -0.232241   0.189078
    6  C  1  S   -0.164416   0.267875  -0.862067   0.603735  -0.001748
    7  C  1  X   -0.200866   1.089694  -0.800051  -0.174308  -0.027145
    8  C  1  Y   -0.295114  -0.597413   0.872719   0.155628   0.047021
    9  C  1  Z   -0.464323   0.330715   0.918272   0.508097  -0.573219
   10  C  1 XX    0.062108   0.008794   0.014352  -0.115892   0.018061
   11  C  1 YY    0.034569  -0.044211   0.072652   0.003861  -0.030275
   12  C  1 ZZ   -0.036466   0.006465   0.001570   0.028733   0.022437
   13  C  1 XY   -0.033208   0.026056  -0.017686  -0.019419  -0.005165
   14  C  1 XZ   -0.021629  -0.009012  -0.035192   0.020386  -0.011605
   15  C  1 YZ    0.000056  -0.017557  -0.000458   0.006846   0.018705
   16  C  2  S   -0.036953   0.000519   0.041104  -0.024641  -0.013797
   17  C  2  S    0.040397  -0.095351   0.328764  -0.505241   0.137083
   18  C  2  X   -0.376384   0.212061  -0.178505  -0.010703   0.056119
   19  C  2  Y    0.085377  -0.168676   0.067753   0.072851   0.282789
   20  C  2  Z    0.422903   0.085462   0.088301   0.023381  -0.831489
   21  C  2  S    0.010495  -0.403175   0.063111   1.051270  -0.200645
   22  C  2  X    0.906956   0.261838  -0.513912  -0.283785  -0.089997
   23  C  2  Y    0.114827  -0.233299   0.363431  -0.170348  -0.396667
   24  C  2  Z   -0.236145  -0.231534  -0.050361  -0.111251   1.379311
   25  C  2 XX   -0.038831  -0.061260   0.129274  -0.014101  -0.014938
   26  C  2 YY   -0.006098   0.017089   0.046898  -0.145953   0.021516
   27  C  2 ZZ    0.029953   0.006724  -0.045244   0.033945  -0.001199
   28  C  2 XY   -0.027415   0.021342  -0.030646  -0.013300  -0.011023
   29  C  2 XZ    0.014297   0.047619   0.007884   0.012630   0.016821
   30  C  2 YZ    0.010374   0.004386   0.036608  -0.044037  -0.022262
   31  O  3  S   -0.017880  -0.004919  -0.004191   0.011692   0.013863
   32  O  3  S    0.063333  -0.079559   0.080249  -0.042060  -0.044318
   33  O  3  X   -0.004154  -0.230203   0.138509   0.123674   0.061180
   34  O  3  Y   -0.040289   0.062319  -0.086080  -0.058025   0.075638
   35  O  3  Z    0.061639   0.036389  -0.096444  -0.044425   0.028635
   36  O  3  S    0.240396   0.395702  -0.271715  -0.234470  -0.107772
   37  O  3  X    0.046036  -0.117023   0.094754   0.010666   0.010462
   38  O  3  Y   -0.143820  -0.093802  -0.019718   0.167533   0.122596
   39  O  3  Z    0.042398  -0.027026  -0.105616  -0.090655   0.047114
   40  O  3 XX    0.015200  -0.023251   0.020800  -0.009443  -0.010433
   41  O  3 YY   -0.007380  -0.005230  -0.007325  -0.020466   0.028814
   42  O  3 ZZ    0.001472  -0.037397   0.018815   0.015728  -0.016685
   43  O  3 XY   -0.005803   0.012838  -0.008798   0.014593   0.014719
   44  O  3 XZ   -0.011782  -0.005361  -0.006480  -0.002805   0.007869
   45  O  3 YZ   -0.024999   0.028896   0.038265   0.016349  -0.024685
   46  C  4  S    0.000792   0.013267  -0.016074  -0.022929   0.021507
   47  C  4  S   -0.128123  -0.142935   0.379593  -0.344425   0.130953
   48  C  4  X    0.320046   0.168506  -0.285201  -0.104479   0.092277
   49  C  4  Y    0.044377  -0.341148  -0.052428   0.107352  -0.060699
   50  C  4  Z    0.513326   0.494919   0.379939   0.311701   0.483571
   51  C  4  S   -0.495591   0.123952  -0.178051   0.739137  -0.286677
   52  C  4  X   -0.336819  -0.022170   0.017258   0.484042  -0.219360
   53  C  4  Y   -0.217057   0.812951  -0.275147  -0.294837   0.023310
   54  C  4  Z   -0.530388  -0.400282  -0.467171  -0.394903  -0.928683
   55  C  4 XX   -0.039805   0.040294  -0.015970  -0.065781   0.035928
   56  C  4 YY    0.021834  -0.037516   0.047734  -0.056367   0.039199
   57  C  4 ZZ   -0.002402  -0.009408   0.008954   0.036271  -0.023081
   58  C  4 XY    0.002503  -0.035172   0.010176   0.057979   0.003629
   59  C  4 XZ   -0.022950  -0.035066  -0.011346   0.009752   0.021968
   60  C  4 YZ   -0.006035  -0.007353   0.019100  -0.026107   0.013444
   61  H  5  S    0.184381   0.158920  -0.008576  -0.396481  -0.089289
   62  H  5  S   -0.079476   0.173664  -0.143619  -0.050243   0.079480
   63  H  6  S   -0.112262   0.176979   0.174589  -0.510150  -0.033333
   64  H  6  S    0.182311  -0.208038   0.194146  -0.022147  -0.013312
   65  H  7  S    0.138109  -0.238167   0.168346  -0.088785   0.183082
   66  H  7  S    0.204910  -0.263477   0.185167  -0.046935   0.127626
   67  H  8  S   -0.041079   0.171971  -0.008246  -0.437682   0.113974
   68  H  8  S   -0.027641   0.032229   0.006369  -0.211360   0.006457

                     31         32         33         34         35
                    0.6578     0.6958     0.8001     0.8419     0.8492
                     A          A          A          A          A   
    1  C  1  S    0.031532  -0.039655  -0.000647  -0.007697   0.054209
    2  C  1  S   -0.044238   0.598277   0.271799  -0.101942  -0.229524
    3  C  1  X    0.067877   0.065253  -0.673854  -0.086505   0.330194
    4  C  1  Y   -0.484507   0.788869  -0.081811  -0.019357   0.339228
    5  C  1  Z    0.189698  -0.052401   0.219584   0.023417  -0.121360
    6  C  1  S   -0.302922  -0.314247   1.251315   0.650879   1.396483
    7  C  1  X   -0.116176   0.001783   3.028752   0.308163  -0.386065
    8  C  1  Y    0.431559  -0.778276   0.678532  -0.185111  -0.131718
    9  C  1  Z   -0.436461   0.051636  -0.823826  -0.071629   0.147604
   10  C  1 XX    0.003345   0.092272  -0.036125   0.040094   0.021199
   11  C  1 YY    0.083054  -0.096399   0.165152  -0.072420   0.154511
   12  C  1 ZZ   -0.041329   0.048100   0.006430   0.003075  -0.095779
   13  C  1 XY    0.021806  -0.038971  -0.064646  -0.057540   0.073250
   14  C  1 XZ   -0.009680  -0.021779  -0.002363   0.003797  -0.052188
   15  C  1 YZ   -0.001545   0.030748   0.016227   0.030967  -0.036693
   16  C  2  S    0.045465   0.032433   0.038133   0.006557  -0.003340
   17  C  2  S   -0.289926  -0.014207   0.294229   0.091017   0.164217
   18  C  2  X   -0.399215  -0.474506  -0.069533  -0.143782   0.071848
   19  C  2  Y   -0.100716  -0.043941   0.591643   0.227667   0.158565
   20  C  2  Z   -0.360061   0.099029   0.194318   0.068870   0.000078
   21  C  2  S    0.500691  -0.399814  -1.536879  -0.238930  -0.517300
   22  C  2  X    0.536609   0.357388   0.278655   0.553370  -0.253861
   23  C  2  Y    0.106705   0.186628  -2.771693  -1.334838  -0.680146
   24  C  2  Z    0.629804  -0.125132  -0.633370  -0.372483  -0.133520
   25  C  2 XX    0.064290   0.040115   0.042896   0.056229   0.000340
   26  C  2 YY    0.007773   0.036539   0.005420  -0.039733  -0.021480
   27  C  2 ZZ   -0.048476  -0.029529  -0.023807  -0.000360   0.009468
   28  C  2 XY    0.022968   0.048230   0.055647  -0.058617  -0.012343
   29  C  2 XZ   -0.005177   0.028303   0.006821  -0.013831   0.003764
   30  C  2 YZ    0.002015   0.008565   0.001065  -0.011657  -0.013320
   31  O  3  S   -0.022320   0.035869   0.019208  -0.000415   0.006128
   32  O  3  S    0.030761  -0.123447  -0.116955   0.122282  -0.375279
   33  O  3  X   -0.093798   0.001379  -0.030930   0.036639  -0.124313
   34  O  3  Y   -0.159021   0.347858  -0.271532   0.220928  -0.503159
   35  O  3  Z    0.070131  -0.035927   0.015798  -0.028948   0.010280
   36  O  3  S    0.026354   0.262788  -0.733702  -0.163176   0.269349
   37  O  3  X    0.053075   0.032543  -0.297758  -0.018353   0.166478
   38  O  3  Y   -0.159256   0.188183   0.730186  -0.342981   0.946805
   39  O  3  Z    0.041303  -0.015864   0.021326   0.021821  -0.056023
   40  O  3 XX    0.027120  -0.051159  -0.051944   0.057216  -0.132756
   41  O  3 YY   -0.091637   0.154335  -0.123493   0.069086  -0.189147
   42  O  3 ZZ   -0.001113  -0.059698   0.009395   0.041613  -0.131763
   43  O  3 XY   -0.028387   0.019512   0.073551   0.016815  -0.046484
   44  O  3 XZ    0.004445  -0.006372   0.004549  -0.003168   0.007260
   45  O  3 YZ   -0.000991  -0.022940  -0.014848  -0.014354   0.015641
   46  C  4  S   -0.069203  -0.052703   0.007256   0.000416  -0.010596
   47  C  4  S   -0.300927  -0.030768   0.192849   0.014806   0.233077
   48  C  4  X   -0.278941  -0.385561  -0.221778   0.188763   0.210960
   49  C  4  Y   -0.207527  -0.044318   0.018873  -0.981131  -0.235206
   50  C  4  Z    0.029977  -0.018044  -0.040469  -0.268176  -0.071834
   51  C  4  S    0.633726   0.370721   0.576207   0.010737  -0.014379
   52  C  4  X    0.533201   0.314769   0.193741  -0.568166  -0.609606
   53  C  4  Y    0.550049  -0.218260   0.487743   2.510672   0.718997
   54  C  4  Z   -0.096218  -0.023787   0.172634   0.693569   0.194582
   55  C  4 XX   -0.119823  -0.098485   0.060308  -0.058272   0.028396
   56  C  4 YY   -0.089055  -0.027621   0.010872   0.061014  -0.009614
   57  C  4 ZZ    0.060321   0.051781  -0.026386  -0.004141   0.020596
   58  C  4 XY   -0.039994  -0.018406  -0.027403   0.085467   0.070427
   59  C  4 XZ    0.011783  -0.008536  -0.005819   0.023727   0.014424
   60  C  4 YZ   -0.059252  -0.025602   0.000552   0.018156  -0.010346
   61  H  5  S    0.139026   0.110051  -0.297144  -0.146643   0.587738
   62  H  5  S    0.093412  -0.057259   2.056190   0.170914  -1.131533
   63  H  6  S    0.187133   0.153420   0.154788  -0.080529  -0.105131
   64  H  6  S    0.061028  -0.011066  -1.418157  -0.418004  -0.200986
   65  H  7  S   -0.501522  -0.156068  -0.000689   0.454620  -0.008631
   66  H  7  S   -0.244655   0.168735  -0.417023  -1.867376  -0.331872
   67  H  8  S   -0.319183  -0.210524  -0.039253  -0.394562  -0.310236
   68  H  8  S   -0.024794  -0.186016  -0.091830   1.696604   0.905553

                     36         37         38         39         40
                    0.8705     0.9078     0.9559     0.9923     1.0343
                     A          A          A          A          A   
    1  C  1  S    0.006386   0.005942  -0.037291  -0.005673  -0.011383
    2  C  1  S    0.651762  -0.480230  -1.284090  -0.309810   0.030897
    3  C  1  X   -0.251161  -0.086636   0.004399  -0.024414   0.221187
    4  C  1  Y   -0.068513   0.117854   0.214629   0.010022   0.129431
    5  C  1  Z    0.050745  -0.030149  -0.005200   0.111837  -0.019527
    6  C  1  S   -1.825619   1.728251   4.124454   1.108099   1.392754
    7  C  1  X   -0.035632   0.668305   0.535681   0.618039  -0.852423
    8  C  1  Y    0.051028  -0.351438  -1.514707   0.148849  -1.776874
    9  C  1  Z   -0.070747  -0.082581  -0.214423  -0.745199  -0.054675
   10  C  1 XX   -0.020594  -0.068967  -0.124295   0.014280  -0.038577
   11  C  1 YY    0.100523   0.056749  -0.056815  -0.032373   0.094819
   12  C  1 ZZ    0.024064  -0.016147  -0.000276  -0.004831  -0.059571
   13  C  1 XY   -0.044540   0.032172  -0.067794   0.008312  -0.058454
   14  C  1 XZ    0.014221  -0.016255   0.064537  -0.012962   0.170723
   15  C  1 YZ    0.015886  -0.002560   0.023592  -0.009424  -0.042532
   16  C  2  S   -0.022840  -0.002255   0.025155   0.006177   0.001933
   17  C  2  S    0.689489  -0.051206   0.501090   0.271398  -0.051924
   18  C  2  X   -0.135135  -0.380320  -0.420582  -0.073714  -0.155813
   19  C  2  Y   -0.763311  -0.257283  -0.056569   0.010964  -0.014072
   20  C  2  Z   -0.165454  -0.055993  -0.012884  -0.035672   0.016168
   21  C  2  S   -0.945646   0.172216  -1.281888  -1.046323   0.125529
   22  C  2  X    0.338624   1.655878   2.811006   0.134484   2.381171
   23  C  2  Y    2.071877   0.335576  -0.300745  -0.682405   0.086309
   24  C  2  Z    0.472412   0.023888  -0.215922   0.121014  -0.283981
   25  C  2 XX    0.117993   0.058253   0.070701   0.026835  -0.030772
   26  C  2 YY   -0.056886  -0.072021   0.002678   0.010038  -0.001148
   27  C  2 ZZ    0.055542   0.015834  -0.003050  -0.003786   0.051638
   28  C  2 XY   -0.063128   0.040688   0.092617  -0.000839   0.020641
   29  C  2 XZ   -0.032638   0.012126   0.020811   0.053728  -0.076163
   30  C  2 YZ   -0.034228  -0.028039   0.031571  -0.029801   0.125372
   31  O  3  S   -0.000229   0.006564   0.002423   0.007902  -0.013302
   32  O  3  S   -0.242039  -0.029649   0.159431   0.077332  -0.013750
   33  O  3  X   -0.109685   0.121809  -0.135233  -0.247594   0.214715
   34  O  3  Y   -0.078661  -0.161486   0.073834   0.022484  -0.313248
   35  O  3  Z   -0.014431   0.236807   0.072410  -0.831520  -0.238529
   36  O  3  S    0.644566  -0.257220  -0.359886  -0.517371   0.740517
   37  O  3  X    0.105619  -0.284174   0.088610   0.204123  -0.054323
   38  O  3  Y    0.111271   0.402638  -0.032951   0.071055   0.412646
   39  O  3  Z    0.029893  -0.254406  -0.037717   1.143381   0.344248
   40  O  3 XX   -0.056654  -0.030261   0.046710   0.021426  -0.007100
   41  O  3 YY   -0.081770  -0.051756   0.009954   0.014850   0.001266
   42  O  3 ZZ   -0.099098   0.029083   0.117933   0.061256  -0.097405
   43  O  3 XY    0.020836  -0.025013   0.027194  -0.000730   0.022450
   44  O  3 XZ   -0.010984   0.004899   0.039784   0.017573   0.025397
   45  O  3 YZ   -0.008139   0.010516   0.002277   0.030252   0.006981
   46  C  4  S    0.000086   0.031525   0.003015   0.002608   0.005503
   47  C  4  S    0.257432  -0.418170   1.128712  -0.279174  -0.268754
   48  C  4  X    0.146913  -0.635529  -0.020166  -0.230578   0.222147
   49  C  4  Y    0.021743  -0.185008   0.058745   0.028850  -0.245696
   50  C  4  Z   -0.026140  -0.029032   0.045454   0.029804  -0.022000
   51  C  4  S   -0.935283  -0.015042  -3.520238   1.069346  -1.282155
   52  C  4  X    0.151453   1.608289   0.750938   0.297192   0.028842
   53  C  4  Y   -0.330360   0.464316   0.393775   0.115731   1.537192
   54  C  4  Z   -0.025422   0.075052   0.055662  -0.102590   0.444661
   55  C  4 XX   -0.017505  -0.099573   0.069637  -0.004838  -0.016093
   56  C  4 YY    0.024039   0.109755   0.044402   0.026109  -0.058179
   57  C  4 ZZ    0.019627  -0.078299   0.035451  -0.056225   0.031785
   58  C  4 XY    0.057097  -0.071244  -0.044452  -0.001329  -0.112612
   59  C  4 XZ    0.026272  -0.023529  -0.017428  -0.028104  -0.008170
   60  C  4 YZ   -0.003145   0.071121   0.016664  -0.005728   0.032581
   61  H  5  S   -0.267934   0.181224  -0.141806   0.206743  -0.655017
   62  H  5  S    0.723617  -0.150668  -0.611941   0.077190  -0.419869
   63  H  6  S   -0.580086  -0.220298   0.036712  -0.191585   0.263792
   64  H  6  S    2.119851   0.743219   0.450121   0.017653   0.119315
   65  H  7  S   -0.056038   0.559451  -0.254439   0.093243  -0.198765
   66  H  7  S    0.188305  -1.159784   0.562328  -0.470325  -0.538550
   67  H  8  S   -0.134683   0.550074  -0.073176   0.132629   0.360595
   68  H  8  S    0.214143  -1.130249   0.422581  -0.492976   0.432444

                     41         42         43         44         45
                    1.0970     1.1140     1.2496     1.3775     1.4644
                     A          A          A          A          A   
    1  C  1  S   -0.001727   0.018684   0.017949  -0.017924  -0.009633
    2  C  1  S   -0.150490   0.573533  -0.009450  -0.040809  -0.150064
    3  C  1  X    0.262936   0.183677  -0.225769   0.038676   0.058077
    4  C  1  Y    0.032335  -0.082391  -0.006308  -0.012294   0.042557
    5  C  1  Z   -0.098131  -0.023280   0.062891  -0.010938   0.026572
    6  C  1  S    0.761064  -1.485849  -2.230454  -0.544940   0.802994
    7  C  1  X   -1.270570  -1.384655  -1.270376   0.375429  -0.248940
    8  C  1  Y   -0.026945   0.603781   0.031812  -0.558688  -0.536056
    9  C  1  Z    0.488911   0.259661   0.088759  -0.058035   0.015725
   10  C  1 XX   -0.008590  -0.039745  -0.006830   0.201641  -0.209278
   11  C  1 YY    0.030418   0.058250  -0.019492  -0.065607   0.028718
   12  C  1 ZZ   -0.035032   0.022045   0.011513  -0.140200   0.168964
   13  C  1 XY   -0.137934  -0.046777   0.001030  -0.074449   0.003897
   14  C  1 XZ    0.038652  -0.031907   0.088200   0.181321  -0.360280
   15  C  1 YZ    0.049261  -0.007293  -0.191080  -0.219868   0.001144
   16  C  2  S    0.022221  -0.046915  -0.025576   0.003130   0.004803
   17  C  2  S    0.646654  -1.369775  -0.750215   0.104540   0.117839
   18  C  2  X    0.134984  -0.143991  -0.002599  -0.048139  -0.009854
   19  C  2  Y    0.147672   0.070034  -0.302606   0.114355  -0.051533
   20  C  2  Z    0.015622   0.007701  -0.081316   0.083005   0.124660
   21  C  2  S   -1.938958   5.847835   2.924479  -0.386560  -0.452010
   22  C  2  X   -0.930850   1.120291   0.104728  -0.118340   0.635622
   23  C  2  Y   -0.180391   0.064369   3.734791  -1.142952   0.177588
   24  C  2  Z   -0.104520   0.016236   0.960984  -0.327205  -0.037052
   25  C  2 XX    0.007415   0.010619  -0.089011  -0.022116   0.000168
   26  C  2 YY    0.075840  -0.145508   0.015471   0.016745   0.242400
   27  C  2 ZZ   -0.010802  -0.014542   0.033842   0.007609  -0.235382
   28  C  2 XY   -0.043979  -0.024166   0.094063   0.101050   0.019207
   29  C  2 XZ   -0.040925  -0.009710  -0.108507  -0.459589  -0.161580
   30  C  2 YZ    0.043507  -0.073013   0.043584   0.053214  -0.526563
   31  O  3  S    0.000477   0.005592  -0.007555  -0.035074  -0.003664
   32  O  3  S    0.037150   0.078562  -0.018424  -0.761902   0.086595
   33  O  3  X   -0.619002  -0.421782  -0.193378   0.047722   0.037468
   34  O  3  Y    0.013770   0.004911  -0.154795   0.246090  -0.051469
   35  O  3  Z    0.226088   0.015659  -0.065662   0.017163  -0.029219
   36  O  3  S   -0.125824  -0.117018   0.472482   1.967136  -0.005629
   37  O  3  X    1.179859   0.845335   0.393120  -0.122073  -0.015983
   38  O  3  Y    0.003635   0.016103   0.037215  -0.786307   0.115181
   39  O  3  Z   -0.433060  -0.077789   0.230821   0.117716   0.054205
   40  O  3 XX    0.012002   0.035043   0.022018  -0.115971  -0.073454
   41  O  3 YY   -0.012581   0.049832   0.007435  -0.248640   0.040099
   42  O  3 ZZ    0.016141  -0.019756  -0.062563  -0.205549   0.049317
   43  O  3 XY    0.107462   0.040534   0.029955   0.020105  -0.015543
   44  O  3 XZ   -0.003163  -0.040020  -0.027734   0.100263  -0.169981
   45  O  3 YZ   -0.039930  -0.002701   0.111609   0.115140   0.032477
   46  C  4  S   -0.018265   0.026668   0.013253  -0.007564   0.002066
   47  C  4  S   -0.989634   0.905662   0.311560   0.010719  -0.080589
   48  C  4  X   -0.039272  -0.119741  -0.021879  -0.107136   0.094245
   49  C  4  Y    0.083235  -0.097370   0.075206  -0.016873  -0.061753
   50  C  4  Z    0.011522  -0.048333   0.047483   0.118520   0.060364
   51  C  4  S    3.254749  -3.893632  -2.212340   0.571216  -0.303313
   52  C  4  X   -0.584934   1.151728   1.456644  -0.204550  -0.066567
   53  C  4  Y   -0.232386   1.316109  -2.232827   0.538888   0.234685
   54  C  4  Z    0.007620   0.358564  -0.623891   0.150033   0.060200
   55  C  4 XX   -0.018951  -0.000996  -0.107054   0.039879   0.021330
   56  C  4 YY   -0.054009   0.088255   0.094999  -0.073073   0.078572
   57  C  4 ZZ   -0.054789   0.015983   0.048128   0.023743  -0.097985
   58  C  4 XY    0.042793  -0.084882   0.075430  -0.086111  -0.144895
   59  C  4 XZ    0.034600  -0.010610   0.110130   0.345426   0.386407
   60  C  4 YZ    0.006225   0.011193   0.059641   0.161296  -0.205491
   61  H  5  S   -0.210294  -0.039631  -0.168970   0.170165  -0.182788
   62  H  5  S   -0.763669  -0.177693  -0.099108   0.036763  -0.291428
   63  H  6  S    0.121535  -0.323861   0.670304  -0.272787   0.124755
   64  H  6  S    0.031813  -0.560802   1.094712  -0.492859   0.200956
   65  H  7  S    0.104675  -0.058387   0.670612  -0.140955  -0.027656
   66  H  7  S   -0.606023  -0.203305   0.824178  -0.262324  -0.041135
   67  H  8  S    0.072554   0.405746  -0.492615   0.138849   0.025591
   68  H  8  S   -0.541493   0.483301  -0.644819   0.062635   0.139086

                     46         47         48         49         50
                    1.5420     1.5511     1.6573     1.7199     1.8064
                     A          A          A          A          A   
    1  C  1  S   -0.006926  -0.026034  -0.001235   0.009260   0.022551
    2  C  1  S   -0.103204  -0.264348   0.016163   0.385556  -0.076548
    3  C  1  X   -0.082428   0.096350  -0.004149   0.186444   0.019347
    4  C  1  Y   -0.019588  -0.029924  -0.003159  -0.152610   0.081557
    5  C  1  Z   -0.166139   0.043018   0.009456  -0.065854  -0.040810
    6  C  1  S   -0.986011  -1.629870   0.035091  -2.047893  -0.596021
    7  C  1  X   -0.607533  -0.991863  -0.078154  -0.993671   0.533693
    8  C  1  Y   -0.968556  -2.969187   0.000371  -0.997274   0.166050
    9  C  1  Z    0.285342   0.314468  -0.193494   0.269651  -0.242114
   10  C  1 XX    0.224866   0.078643  -0.154807  -0.247936  -0.119194
   11  C  1 YY    0.003191  -0.177980   0.028364  -0.081509   0.024105
   12  C  1 ZZ   -0.237272   0.069900   0.128654   0.395772   0.066612
   13  C  1 XY    0.180769  -0.152066   0.055861   0.126112  -0.402869
   14  C  1 XZ    0.192631  -0.302479  -0.231126   0.188420   0.102607
   15  C  1 YZ    0.504932  -0.015926   0.156139   0.061333   0.183553
   16  C  2  S   -0.017480  -0.006221  -0.001103  -0.008515   0.010720
   17  C  2  S   -0.374724  -0.242378   0.017275   0.082427  -0.385874
   18  C  2  X   -0.046938  -0.086367  -0.005268  -0.139969   0.227893
   19  C  2  Y   -0.090562  -0.048794  -0.005336   0.084472  -0.184722
   20  C  2  Z    0.047107  -0.026376   0.025359   0.031767  -0.047422
   21  C  2  S    1.509823   0.901601   0.032566   0.715508   0.352195
   22  C  2  X    0.830494   1.708164   0.229423   0.664931  -0.334271
   23  C  2  Y    1.148753   0.993809   0.144833   0.925188   0.616351
   24  C  2  Z    0.136989  -0.112541   0.221210   0.091361   0.279364
   25  C  2 XX    0.015068  -0.021728   0.016687  -0.101603   0.047299
   26  C  2 YY    0.112209   0.117519  -0.041414  -0.153795  -0.027710
   27  C  2 ZZ   -0.129625  -0.093436   0.026009   0.348426   0.017543
   28  C  2 XY    0.043334  -0.131512   0.049949   0.179773  -0.289899
   29  C  2 XZ   -0.020688   0.192525  -0.112531   0.101021  -0.117488
   30  C  2 YZ   -0.084440   0.051591  -0.029122  -0.142612   0.058297
   31  O  3  S   -0.032504  -0.093606   0.002783  -0.037234   0.001829
   32  O  3  S   -0.483802  -1.457205   0.015183  -0.726819   0.093331
   33  O  3  X   -0.054977   0.052412  -0.033308  -0.075329   0.218870
   34  O  3  Y    0.011291   0.104200   0.005178   0.075525  -0.074592
   35  O  3  Z   -0.127351  -0.024352  -0.057909  -0.010402  -0.089911
   36  O  3  S    1.788266   5.133677  -0.069968   2.516535  -0.175170
   37  O  3  X    0.038558  -0.017973   0.040265   0.169900  -0.362711
   38  O  3  Y   -0.504627  -1.507657   0.025094  -0.809445   0.098071
   39  O  3  Z   -0.022415   0.174438   0.081368   0.038665   0.145199
   40  O  3 XX    0.035515  -0.175230  -0.147991  -0.499894  -0.245952
   41  O  3 YY   -0.206797  -0.502714   0.003415  -0.241448  -0.071315
   42  O  3 ZZ   -0.189410  -0.383965   0.164573   0.307192   0.374914
   43  O  3 XY   -0.146279   0.086306  -0.070590  -0.022087   0.485180
   44  O  3 XZ    0.022425  -0.241857  -0.257617   0.242072   0.026021
   45  O  3 YZ   -0.451862   0.093488  -0.064508  -0.011501  -0.184668
   46  C  4  S    0.005803   0.000725   0.003128   0.014406   0.006505
   47  C  4  S    0.149348   0.057704  -0.022176   0.001432   0.098330
   48  C  4  X    0.017550   0.021657   0.053083   0.093130  -0.032209
   49  C  4  Y    0.045510   0.023919  -0.014538  -0.090820   0.063731
   50  C  4  Z    0.037341  -0.084402   0.022643  -0.041409   0.042208
   51  C  4  S   -1.436504  -1.641268  -0.231158  -1.025802  -0.283172
   52  C  4  X    0.761859   0.594415   0.032638   0.089403   0.176241
   53  C  4  Y   -0.359715   0.297449   0.007278  -0.027299  -0.259410
   54  C  4  Z   -0.107365   0.217237  -0.072515   0.034851  -0.140419
   55  C  4 XX   -0.011665  -0.056424   0.004213  -0.017554  -0.122461
   56  C  4 YY    0.060376   0.080048  -0.402032  -0.157128   0.178165
   57  C  4 ZZ   -0.072822  -0.028216   0.396103   0.198433  -0.001838
   58  C  4 XY   -0.025011   0.056066   0.028451  -0.072464   0.032837
   59  C  4 XZ    0.149892  -0.211246  -0.067506  -0.000004   0.109322
   60  C  4 YZ    0.001280  -0.037856   0.722063  -0.241417   0.032051
   61  H  5  S   -0.155748  -0.269554  -0.020983   0.041854   0.564558
   62  H  5  S   -0.265215  -0.671346   0.018872  -0.234170   0.168035
   63  H  6  S    0.128409   0.180772   0.081626   0.201190   0.187868
   64  H  6  S    0.306477   0.319634   0.104820   0.397481   0.179328
   65  H  7  S    0.131747  -0.003438   0.027133   0.281949  -0.148181
   66  H  7  S    0.196846  -0.038448   0.026473   0.081867   0.233865
   67  H  8  S   -0.039906   0.114515  -0.006883   0.049875   0.011835
   68  H  8  S   -0.219259   0.036644   0.023822   0.153518  -0.061558

                     51         52         53         54         55
                    1.8384     1.9295     1.9890     2.0352     2.1467
                     A          A          A          A          A   
    1  C  1  S    0.004932   0.003278  -0.017508  -0.004016   0.026845
    2  C  1  S   -0.050415   0.197535   0.179279   0.051210   0.183109
    3  C  1  X    0.030524   0.057917   0.221238  -0.145273   0.001801
    4  C  1  Y   -0.017376  -0.129906   0.006924   0.181715  -0.014389
    5  C  1  Z    0.055145  -0.002528  -0.028462   0.056550  -0.034709
    6  C  1  S   -0.095537  -0.956423  -0.424241  -1.269066  -0.840718
    7  C  1  X   -0.009660  -0.683326   0.048535  -1.388937  -0.388669
    8  C  1  Y   -0.339288   0.017262   0.018195  -0.461244   0.178490
    9  C  1  Z    0.107224   0.302737  -0.118330   0.310824  -0.069146
   10  C  1 XX   -0.022206   0.182161  -0.435194  -0.113989  -0.344347
   11  C  1 YY   -0.078578  -0.148377   0.318275   0.241961  -0.146080
   12  C  1 ZZ    0.115995  -0.090280   0.074544  -0.242952   0.530370
   13  C  1 XY   -0.079059   0.096283  -0.114837   0.157330   0.053019
   14  C  1 XZ   -0.071089  -0.044166   0.020348  -0.195755  -0.191089
   15  C  1 YZ   -0.035981  -0.043879   0.066001  -0.045718   0.078233
   16  C  2  S    0.008049  -0.022137  -0.018311  -0.038935   0.001828
   17  C  2  S   -0.026329  -0.220814  -0.299471  -0.419621   0.281002
   18  C  2  X    0.025802   0.022398  -0.104326  -0.147217   0.083081
   19  C  2  Y   -0.019568  -0.182450  -0.137161   0.045657   0.142532
   20  C  2  Z    0.051328  -0.034218  -0.038431   0.008948   0.074141
   21  C  2  S   -0.051353   1.090866   0.344397   1.814058  -0.099822
   22  C  2  X    0.159024  -0.418791   0.413400   0.445547  -0.552822
   23  C  2  Y    0.224388   0.381502   0.462766   1.509994   0.091481
   24  C  2  Z   -0.118870  -0.005044   0.166483   0.265236   0.276374
   25  C  2 XX   -0.007188  -0.224010   0.337809   0.398370  -0.118513
   26  C  2 YY    0.118402   0.627310  -0.246540  -0.200007  -0.165841
   27  C  2 ZZ   -0.084365  -0.357146  -0.211168  -0.242684   0.361862
   28  C  2 XY   -0.137987   0.167614   0.422253  -0.184595  -0.099533
[...]

          ATOMIC WEIGHTS (AMU)

    1     C                12.00000
    2     C                12.00000
    3     O                15.99491
    4     C                12.00000
    5     H                 1.00782
    6     H                 1.00782
    7     H                 1.00782
    8     H                 1.00782

 MODES    1 TO    6 ARE TAKEN AS ROTATIONS AND TRANSLATIONS.

 ANALYZING SYMMETRY OF NORMAL MODES...

     FREQUENCIES IN CM**-1, IR INTENSITIES IN DEBYE**2/AMU-ANGSTROM**2,
     REDUCED MASSES IN AMU.

                            1           2           3           4           5
       FREQUENCY:         9.67        5.05        0.09        0.05        0.12  
        SYMMETRY:         A           A           A           A           A   
    REDUCED MASS:      2.59989     4.26697     6.98597     6.96599     6.91371
    IR INTENSITY:      0.01638     0.06772     0.00001     0.00000     0.00003

  1   C            X -0.01070682  0.00969223  0.01168902 -0.01983265  0.13142318
                   Y  0.02484798  0.08492533  0.11588841 -0.06397987 -0.02196876
                   Z -0.13447753  0.02041795  0.06541278  0.11521170  0.01119886
  2   C            X -0.00910713 -0.08830763  0.01158073 -0.01969316  0.13373256
                   Y  0.00806103 -0.02203194  0.11532726 -0.06410875 -0.01938015
                   Z -0.05984576  0.00357616  0.06722833  0.11632385  0.01131949
  3   O            X  0.00675802  0.12730686  0.01188046 -0.01994916  0.12863102
                   Y  0.00156881  0.07142873  0.11606501 -0.06384899 -0.02165934
                   Z  0.01014019  0.00486762  0.06404092  0.11440363  0.01163206
  4   C            X  0.01254270 -0.05197594  0.01169995 -0.01969062  0.13285263
                   Y -0.03536621 -0.14451102  0.11493032 -0.06407205 -0.01642728
                   Z  0.17762041 -0.02821661  0.06747468  0.11654916  0.01187956
  5   H            X -0.02958022 -0.03177871  0.01156654 -0.01981576  0.13242309
                   Y  0.06130081  0.18231679  0.11617007 -0.06402099 -0.02430912
                   Z -0.33842637  0.04926749  0.06536944  0.11514655  0.01066759
  6   H            X -0.02646844 -0.19090408  0.01138185 -0.01958446  0.13618108
                   Y  0.03250625  0.00382374  0.11523001 -0.06422130 -0.01999106
                   Z -0.20765237  0.01850202  0.06834463  0.11695041  0.01092763
  7   H            X  0.03002888  0.05105854  0.01190649 -0.01980841  0.13039710
                   Y -0.05910206 -0.16762252  0.11503186 -0.06395534 -0.01588030
                   Z  0.32113887 -0.04215038  0.06633562  0.11590899  0.01225407
  8   H            X  0.01373273 -0.12260471  0.01160968 -0.01958243  0.13452177
                   Y -0.04833725 -0.22354811  0.11449867 -0.06415434 -0.01451165
                   Z  0.23427698 -0.04074735  0.06878985  0.11736052  0.01197205

 TRANS. SAYVETZ    X  0.00845578  0.17263449  0.65649145 -1.10908974  7.37123988
                   Y -0.01813241 -0.04354987  6.47473865 -3.58554486 -1.11503015
                   Z -0.02883307  0.01194050  3.69666137  6.47590021  0.64500856
               TOTAL  0.03509459  0.17844280  7.48455255  7.48488447  7.48294766

   ROT. SAYVETZ    X -0.08214454 -1.25738698 -0.14144221 -0.08253153  0.04684262
                   Y-11.55044586  3.70128281 -0.12397472 -0.08228776 -0.06398549
                   Z -2.72675744-18.80291391 -0.05965900  0.00338375  0.45020688
               TOTAL 11.86822453 19.20494957  0.19731910  0.11659407  0.45713741

                            6           7           8           9          10
       FREQUENCY:         6.55      186.46      288.93      562.34      685.75  
        SYMMETRY:         A           A           A           A           A   
    REDUCED MASS:      5.28917     1.84177     3.58845     1.25397     2.78673
    IR INTENSITY:      0.13953     0.16473     0.16337     0.14993     0.25323

  1   C            X  0.00040242  0.00985914 -0.01134107 -0.00076488 -0.11413445
                   Y -0.00252733 -0.01904908 -0.03340141  0.00194131 -0.04863816
                   Z  0.00960418  0.12032448 -0.00396514 -0.01145713  0.00167366
  2   C            X -0.00916375 -0.00870705 -0.04777921 -0.01024392 -0.02251298
                   Y  0.02259108  0.01794055 -0.05932831  0.01917979  0.14702368
                   Z -0.13428511 -0.11207023 -0.00614431 -0.12448237  0.02466188
  3   O            X  0.01195359 -0.00778889  0.14220053  0.00211649  0.07485593
                   Y -0.02957564  0.01249100 -0.05048360 -0.00419205 -0.08608494
                   Z  0.18578479 -0.08141639 -0.01973865  0.02857287 -0.01946195
  4   C            X -0.00542162  0.00579908 -0.10425319  0.00212172  0.02446584
                   Y  0.01675320 -0.00946783  0.12278803 -0.00404892  0.03286286
                   Z -0.07845929  0.06197211  0.02831161  0.02427050  0.00285455
  5   H            X -0.00380478  0.04205081 -0.05602172  0.02615324 -0.13117442
                   Y  0.00490721 -0.07995266  0.07757451 -0.04880600 -0.00771215
                   Z -0.05464582  0.50548907  0.01850022  0.31423914  0.01001574
  6   H            X -0.01948299 -0.02700441  0.02894091  0.02868586  0.10896898
                   Y  0.04582354  0.05257970 -0.07635699 -0.05445639  0.11175887
                   Z -0.28728124 -0.33440850 -0.01619944  0.34771868  0.01057813
  7   H            X  0.00519659  0.03036620 -0.31083517 -0.03415015  0.38786746
                   Y -0.00669444 -0.05364219  0.16906399  0.06235980 -0.05382371
                   Z  0.07510622  0.34336397  0.05342777 -0.39962961 -0.04047937
  8   H            X -0.01253919 -0.00460494  0.02626928  0.05154459 -0.21798260
                   Y  0.03476215  0.00897657  0.27353750 -0.09583258 -0.24687755
                   Z -0.18228436 -0.05873365  0.04083237  0.61384589 -0.01879781

 TRANS. SAYVETZ    X -0.00986891 -0.00004166 -0.00008231  0.00000692 -0.00003020
                   Y  0.04815879  0.00027386  0.00051084  0.00000946 -0.00013356
                   Z  0.08130896 -0.00025464  0.00002453  0.00002260  0.00000301
               TOTAL  0.09501480  0.00037627  0.00051801  0.00002546  0.00013696

   ROT. SAYVETZ    X 12.78785769  0.02538616  0.01498001 -0.00120776 -0.00236038
                   Y  8.05831734 -0.03133678 -0.00969505 -0.00406543  0.00357624
                   Z  0.66603514  0.07847855 -0.00272431 -0.00622470 -0.00497725
               TOTAL 15.12975166  0.08823454  0.01805038  0.00753215  0.00656764

                           11          12          13          14          15
       FREQUENCY:       940.87     1001.90     1031.20     1038.87     1077.50  
        SYMMETRY:         A           A           A           A           A   
    REDUCED MASS:      3.16860     1.35925     1.15770     1.60382     1.46962
    IR INTENSITY:      1.43501     0.33074     0.41457     0.31673     0.12199

  1   C            X  0.19184314  0.00169036 -0.00719489 -0.01245676  0.02668762
                   Y -0.04750971 -0.00355124  0.01464433  0.02277481  0.01165754
                   Z -0.02334657  0.02381000 -0.09219974 -0.14690049 -0.00022442
  2   C            X -0.05785183  0.00531951 -0.00049268  0.00804445  0.02043573
                   Y  0.08289979 -0.01025870 -0.00064794 -0.01436452 -0.11547420
                   Z  0.01781812  0.06204247 -0.00890695  0.09797349 -0.01894197
  3   O            X -0.01968507 -0.00057288  0.00156581  0.00301018 -0.01938121
                   Y -0.03087139  0.00123175 -0.00279647 -0.00574001  0.04591954
                   Z -0.00317837 -0.00668215  0.02326865  0.03430453  0.00870801
  4   C            X -0.09632596 -0.01125095 -0.00475096  0.00089860 -0.05996947
                   Y  0.02530995  0.02128053  0.00823168 -0.00123466  0.07879214
                   Z  0.01160006 -0.13532351 -0.04569411  0.00436905  0.01823554
  5   H            X  0.26028866 -0.00778804  0.02605947  0.04969950 -0.00963969
                   Y -0.21276086  0.01439163 -0.04768208 -0.09460230  0.10769062
                   Z -0.05432436 -0.08871548  0.31672929  0.60317712  0.01777244
  6   H            X -0.20020762 -0.02218760  0.05487900 -0.03843279  0.45583861
                   Y  0.12794893  0.04251592 -0.09395167  0.06695435 -0.22455992
                   Z  0.03661943 -0.27736566  0.57734624 -0.41666924 -0.08396100
  7   H            X  0.04760333  0.03288179  0.05679929 -0.01825478  0.38892627
                   Y -0.01252227 -0.06003479 -0.09612359  0.02906511 -0.03012094
                   Z -0.00473031  0.38435179  0.61200427 -0.18403345 -0.04836677
  8   H            X -0.24374463  0.05668788 -0.01448513  0.00105421 -0.37458441
                   Y -0.13575424 -0.10536880  0.01746608  0.00424939 -0.28379447
                   Z  0.00058536  0.67683135 -0.12742096 -0.01635838 -0.01256411

 TRANS. SAYVETZ    X -0.00000169  0.00000402 -0.00000018  0.00000261 -0.00000964
                   Y -0.00029713  0.00000397 -0.00000746  0.00000750  0.00002895
                   Z  0.00000075  0.00000828  0.00001712  0.00000992 -0.00000068
               TOTAL  0.00029714  0.00001003  0.00001868  0.00001271  0.00003052

   ROT. SAYVETZ    X -0.00188776  0.00081986  0.00144727  0.00018429 -0.00032096
                   Y  0.00063617  0.00016934 -0.00166673 -0.00136069  0.00032304
                   Z -0.00032741  0.00168163  0.00162167  0.00044192  0.00071729
               TOTAL  0.00201880  0.00187849  0.00273905  0.00144248  0.00084963

                           16          17          18          19          20
       FREQUENCY:      1325.90     1445.34     1453.11     1686.32     1806.51  
        SYMMETRY:         A           A           A           A           A   
    REDUCED MASS:      1.32294     1.16161     1.29735     4.70834     7.63282
    IR INTENSITY:      0.05965     0.05694     0.95359     1.66359     2.28875

  1   C            X  0.00440036  0.04769468  0.07341303 -0.02301927  0.02008165
                   Y -0.00253000 -0.00782507 -0.01417985  0.07161760  0.21070358
                   Z -0.00079269 -0.00516831 -0.00824669  0.01306483  0.03116065
  2   C            X  0.01594847  0.05866248 -0.09903887  0.18133556 -0.05582472
                   Y  0.09659781  0.02354039  0.03143834  0.01822647 -0.02592993
                   Z  0.01380976 -0.00122366  0.01317200 -0.01220936  0.00058848
  3   O            X  0.00589271 -0.03524178 -0.02764815 -0.00233806 -0.01810520
                   Y  0.01250819 -0.05147984 -0.03322970 -0.04849059 -0.13791802
                   Z  0.00145764 -0.00511690 -0.00289412 -0.00735269 -0.01998922
  4   C            X -0.05548041  0.01816333 -0.01421710 -0.16480131  0.04676417
                   Y -0.09180948  0.00323566 -0.03000193 -0.04254904  0.01696763
                   Z -0.00979886 -0.00110972 -0.00339351  0.00709174 -0.00124138
  5   H            X  0.06400737 -0.23599113 -0.10350735 -0.01220001  0.13521944
                   Y -0.12010665  0.70677525  0.44892838  0.02229624 -0.11075063
                   Z -0.02374992  0.12960486  0.07836943  0.00440659 -0.02835087
  6   H            X  0.71352102 -0.09690072  0.25724974 -0.11788094  0.09789657
                   Y -0.07060422  0.07066423 -0.05411720  0.11292809 -0.07562498
                   Z -0.07072101  0.01962584 -0.03064518  0.02751091 -0.01997862
  7   H            X -0.44040146 -0.35497689  0.38352256  0.20626575 -0.05288788
                   Y -0.00961251  0.08336035 -0.11321954 -0.14422278  0.05061896
                   Z  0.03567048  0.04378006 -0.05085752 -0.04022198  0.01236126
  8   H            X -0.01235082 -0.23547720  0.37590266  0.03815993 -0.02413807
                   Y -0.02512401 -0.26951818  0.39749084  0.21529442 -0.07731366
                   Z -0.00264932 -0.02248107  0.03083743  0.03036961 -0.01003458

 TRANS. SAYVETZ    X -0.00000816 -0.00001430 -0.00003188  0.00002217 -0.00002638
                   Y -0.00004412 -0.00009520 -0.00003106 -0.00015205  0.00017149
                   Z  0.00000276 -0.00000058  0.00001138 -0.00000132  0.00000447
               TOTAL  0.00004495  0.00009627  0.00004594  0.00015367  0.00017357

   ROT. SAYVETZ    X  0.00104297  0.00073932 -0.00008687 -0.00073422  0.00034559
                   Y -0.00104579 -0.00128181  0.00004919  0.00089699  0.00000936
                   Z  0.00081193  0.00280350  0.00064320 -0.00130447 -0.00029792
               TOTAL  0.00168544  0.00317006  0.00065091  0.00174509  0.00045637

                           21          22          23          24
       FREQUENCY:      2925.16     3168.53     3182.52     3260.50  
        SYMMETRY:         A           A           A           A   
    REDUCED MASS:      1.08442     1.05976     1.09095     1.11777
    IR INTENSITY:      3.66848     0.18175     0.27056     0.08707

  1   C            X -0.07549364 -0.00218302 -0.00475603 -0.00047794
                   Y -0.02661859 -0.00106480  0.00086339 -0.00019052
                   Z  0.00208969  0.00001558  0.00052645  0.00001016
  2   C            X  0.00215999 -0.00587485 -0.02410573 -0.00318084
                   Y  0.00205402 -0.03711321 -0.06932831 -0.00873146
                   Z  0.00014140 -0.00530227 -0.00882098 -0.00109715
  3   O            X  0.00043327  0.00034029 -0.00003207  0.00015028
                   Y -0.00175082  0.00047967 -0.00026284  0.00027182
                   Z -0.00030801  0.00004746 -0.00003940  0.00003134
  4   C            X -0.00032705 -0.05293857  0.03221880  0.03071061
                   Y  0.00002910 -0.01429805  0.02011244 -0.08748556
                   Z  0.00003093  0.00218576  0.00045589 -0.01622204
  5   H            X  0.88757400  0.01471997  0.03852009 -0.00012006
                   Y  0.35429592  0.00449610  0.00893702 -0.00091048
                   Z -0.01813315 -0.00052266 -0.00177171 -0.00014235
  6   H            X -0.02125114  0.12080849  0.21123516  0.02665021
                   Y -0.03930700  0.45256310  0.78693492  0.09106448
                   Z -0.00437168  0.06057610  0.10528829  0.01199695
  7   H            X  0.00478934  0.13212548 -0.09185486  0.15978890
                   Y  0.00647596  0.56185265 -0.38883178  0.61635554
                   Z  0.00062096  0.07664876 -0.05302242  0.08287486
  8   H            X -0.00092671  0.45320217 -0.19736221 -0.51080442
                   Y -0.00153159 -0.40165985  0.17286011  0.43707883
                   Z -0.00016100 -0.10052856  0.04346481  0.11086952

 TRANS. SAYVETZ    X -0.00000371 -0.00001764  0.00000095  0.00000123
                   Y  0.00000694  0.00004148  0.00000409 -0.00000581
                   Z  0.00000024  0.00000463  0.00000026  0.00000066
               TOTAL  0.00000787  0.00004532  0.00000420  0.00000598

   ROT. SAYVETZ    X  0.00004675 -0.00010235  0.00023360 -0.00010587
                   Y -0.00003637  0.00005626 -0.00019316  0.00020670
                   Z  0.00013487 -0.00000827  0.00033381 -0.00025438
               TOTAL  0.00014730  0.00011709  0.00045090  0.00034445

 REFERENCE ON SAYVETZ CONDITIONS - A. SAYVETZ, J.CHEM.PHYS., 7, 383-389(1939).

 NOTE - THE MODES J,K ARE ORTHONORMALIZED ACCORDING TO
 SUM ON I   M(I) * (X(I,J)*X(I,K) + Y(I,J)*Y(I,K) + Z(I,J)*Z(I,K)) = DELTA(J,K)

  MODE FREQ(CM**-1)  SYMMETRY  RED. MASS  IR INTENS.
     1       9.672    A        2.599892    0.016375
     2       5.046    A        4.266970    0.067722
     3       0.088    A        6.985967    0.000013
     4       0.050    A        6.965986    0.000005
     5       0.118    A        6.913712    0.000035
     6       6.547    A        5.289165    0.139531
     7     186.460    A        1.841766    0.164731
     8     288.925    A        3.588455    0.163368
     9     562.337    A        1.253969    0.149931
    10     685.748    A        2.786731    0.253232
    11     940.869    A        3.168598    1.435009
    12    1001.902    A        1.359246    0.330741
    13    1031.203    A        1.157701    0.414566
    14    1038.870    A        1.603818    0.316725
    15    1077.505    A        1.469619    0.121994
    16    1325.905    A        1.322938    0.059650
    17    1445.339    A        1.161605    0.056937
    18    1453.106    A        1.297345    0.953591
    19    1686.316    A        4.708337    1.663592
    20    1806.514    A        7.632819    2.288745
    21    2925.158    A        1.084421    3.668476
    22    3168.527    A        1.059758    0.181750
    23    3182.518    A        1.090951    0.270564
    24    3260.498    A        1.117766    0.087066

     -------------------------------
     THERMOCHEMISTRY AT T=  298.15 K
     -------------------------------

 USING IDEAL GAS, RIGID ROTOR, HARMONIC NORMAL MODE APPROXIMATIONS.
 P=  1.01325E+05 PASCAL.
 ALL FREQUENCIES ARE SCALED BY   1.00000
 THE MOMENTS OF INERTIA ARE (IN AMU*BOHR**2)
             79.10411           290.32789           369.43199
 THE ROTATIONAL SYMMETRY NUMBER IS  1.0
 THE ROTATIONAL CONSTANTS ARE (IN GHZ)
     22.79386     6.21052     4.88070
      7 -     24 VIBRATIONAL MODES ARE USED IN THERMOCHEMISTRY.
 THE HARMONIC ZERO POINT ENERGY IS (SCALED BY   1.000)
        0.061665 HARTREE/MOLECULE    13533.850438 CM**-1/MOLECULE 
       38.695259 KCAL/MOL              161.900964 KJ/MOL

               Q               LN Q
 ELEC.     1.00000E+00       0.000000
 TRANS.    1.64832E+07      16.617850
 ROT.      3.29726E+04      10.403431
 VIB.      2.59769E+00       0.954623
 TOT.      1.41182E+12      27.975904

              E         H         G         CV        CP        S
           KJ/MOL    KJ/MOL    KJ/MOL   J/MOL-K   J/MOL-K   J/MOL-K
 ELEC.      0.000     0.000     0.000     0.000     0.000     0.000
 TRANS.     3.718     6.197   -41.195    12.472    20.786   158.954
 ROT.       3.718     3.718   -25.789    12.472    12.472    98.970
 VIB.     165.884   165.884   159.535    32.229    32.229    21.296
 TOTAL    173.321   175.800    92.550    57.172    65.486   279.220
 VIB. THERMAL CORRECTION E(T)-E(0) = H(T)-H(0) =      3983.004 J/MOL

              E         H         G         CV        CP        S
         KCAL/MOL  KCAL/MOL  KCAL/MOL CAL/MOL-K CAL/MOL-K CAL/MOL-K
 ELEC.      0.000     0.000     0.000     0.000     0.000     0.000
 TRANS.     0.889     1.481    -9.846     2.981     4.968    37.991
 ROT.       0.889     0.889    -6.164     2.981     2.981    23.654
 VIB.      39.647    39.647    38.130     7.703     7.703     5.090
 TOTAL     41.425    42.017    22.120    13.664    15.652    66.735
 VIB. THERMAL CORRECTION E(T)-E(0) = H(T)-H(0) =       951.961 CAL/MOL
 ......END OF NORMAL COORDINATE ANALYSIS......
 STEP CPU TIME =     0.00 TOTAL CPU TIME =        776.0 (     12.9 MIN)
 TOTAL WALL CLOCK TIME=        782.8 SECONDS, CPU UTILIZATION IS    99.13%
               1080583  WORDS OF DYNAMIC MEMORY USED
 EXECUTION OF GAMESS TERMINATED NORMALLY Tue Oct  4 21:35:14 2022
 DDI: 263640 bytes (0.3 MB / 0 MWords) used by master data server.

 ----------------------------------------
 CPU timing information for all processes
 ========================================
 0: 772.454 + 3.544 = 775.998
 ----------------------------------------
 ddikick.x: exited gracefully.
----- accounting info -----
Files used on the master node chemcompute-node-2.novalocal were:
-rw-r--r--. 1 chemcomp chemcomp     1021 Oct  4 21:22 /scratch/120816/460773.F05
-rw-rw-r--. 1 chemcomp chemcomp 65536000 Oct  4 21:35 /scratch/120816/460773.F10
-rw-rw-r--. 1 chemcomp chemcomp  4143136 Oct  4 21:35 /scratch/120816/460773.F22
Tue Oct  4 21:35:17 UTC 2022
0.102u 0.031s 13:06.18 0.0%	0+0k 8+208io 0pf+0w
Finishing Up...
Looking for IR data...
Looking for Raman data...
vibramans not found
Looking for thermodynamics data...
Looking for UV-Vis data...
chemcompute.org
{'UTCtimestamp': '2022-10-04T21:35:19.030064', 'cluster': 'jetstream2', 'clusterJobNumber': '120816', 'status': 'COMPLETE', 'nodeList': 'chemcompute-node-2'}
120816
